REMARK  Name = Azadirachtin
REMARK  20 active torsions:
REMARK  status: ('A' for Active; 'I' for Inactive)
REMARK    1  A    between atoms: C_1  and  C_2
REMARK    2  A    between atoms: C_3  and  C_4
REMARK    3  A    between atoms: C_3  and  C_5
REMARK    4  A    between atoms: C_5  and  O_7
REMARK    5  A    between atoms: O_7  and  C_8
REMARK    6  A    between atoms: C_10  and  O_48
REMARK    7  A    between atoms: C_11  and  C_44
REMARK    8  A    between atoms: C_19  and  C_39
REMARK    9  A    between atoms: C_19  and  O_43
REMARK   10  A    between atoms: C_21  and  C_24
REMARK   11  A    between atoms: C_21  and  C_25
REMARK   12  A    between atoms: C_22  and  O_23
REMARK   13  A    between atoms: C_29  and  C_31
REMARK   14  A    between atoms: C_32  and  O_38
REMARK   15  A    between atoms: C_39  and  O_41
REMARK   16  A    between atoms: O_41  and  C_42
REMARK   17  A    between atoms: C_44  and  O_46
REMARK   18  A    between atoms: O_46  and  C_47
REMARK   19  A    between atoms: O_48  and  C_49
REMARK   20  A    between atoms: C_49  and  C_51
REMARK                            x       y       z     vdW  Elec       q    Type
REMARK                         _______ _______ _______ _____ _____    ______ ____
ROOT
ATOM      1  C   UNL     1       1.630  -0.377   0.606  0.00  0.00    +0.000 C 
ATOM      2  C   UNL     1       2.321  -0.497  -0.781  0.00  0.00    +0.000 C 
ATOM      3  C   UNL     1       3.298   0.630  -1.198  0.00  0.00    +0.000 C 
ATOM      4  C   UNL     1       2.834   2.029  -0.754  0.00  0.00    +0.000 C 
ATOM      5  C   UNL     1       2.559   3.096  -1.817  0.00  0.00    +0.000 C 
ATOM      6  O   UNL     1       1.733   4.074  -1.124  0.00  0.00    +0.000 OA
ATOM      7  C   UNL     1       0.952   3.372  -0.119  0.00  0.00    +0.000 C 
ATOM      8  C   UNL     1       1.416   1.949  -0.222  0.00  0.00    +0.000 C 
ATOM      9  C   UNL     1       1.026   1.055   0.921  0.00  0.00    +0.000 C 
ATOM     10  C   UNL     1       1.561   1.473   2.294  0.00  0.00    +0.000 C 
ATOM     11  O   UNL     1       0.694   0.844   3.222  0.00  0.00    +0.000 OA
ATOM     12  C   UNL     1      -0.641   1.022   2.744  0.00  0.00    +0.000 C 
ATOM     13  C   UNL     1      -0.544   1.147   1.172  0.00  0.00    +0.000 C 
ATOM     14  C   UNL     1      -1.432   2.297   0.356  0.00  0.00    +0.000 C 
ATOM     15  C   UNL     1      -0.544   3.391  -0.435  0.00  0.00    +0.000 C 
ATOM     16  H   UNL     1       2.382  -0.621   1.368  0.00  0.00    +0.000 HD
ATOM     17  H   UNL     1       1.552  -0.630  -1.555  0.00  0.00    +0.000 HD
ATOM     18  H   UNL     1       2.876  -1.445  -0.814  0.00  0.00    +0.000 HD
ATOM     19  H   UNL     1       4.279   0.413  -0.759  0.00  0.00    +0.000 HD
ATOM     20  H   UNL     1       3.432   3.597  -2.243  0.00  0.00    +0.000 HD
ATOM     21  H   UNL     1       1.970   2.710  -2.660  0.00  0.00    +0.000 HD
ATOM     22  H   UNL     1       1.156   3.844   0.844  0.00  0.00    +0.000 HD
ATOM     23  H   UNL     1       0.861   1.500  -1.062  0.00  0.00    +0.000 HD
ATOM     24  H   UNL     1       2.562   1.120   2.533  0.00  0.00    +0.000 HD
ATOM     25  H   UNL     1       1.533   2.552   2.472  0.00  0.00    +0.000 HD
ATOM     26  H   UNL     1      -0.959   0.215   0.779  0.00  0.00    +0.000 HD
ATOM     27  H   UNL     1      -0.916   4.402  -0.228  0.00  0.00    +0.000 HD
ENDROOT
BRANCH  14  28
ATOM     28  C   UNL     1      -2.469   1.530  -0.564  0.00  0.00    +0.000 C 
ATOM     29  C   UNL     1      -3.514   0.577  -0.043  0.00  0.00    +0.000 C 
ATOM     30  C   UNL     1      -4.586   1.593  -0.714  0.00  0.00    +0.000 C 
ATOM     31  C   UNL     1      -4.405   1.147  -2.161  0.00  0.00    +0.000 C 
ATOM     32  C   UNL     1      -3.004   1.783  -2.041  0.00  0.00    +0.000 C 
ATOM     33  O   UNL     1      -1.838   1.010  -1.766  0.00  0.00    +0.000 OA
ATOM     34  C   UNL     1      -5.380  -0.062  -1.927  0.00  0.00    +0.000 C 
ATOM     35  C   UNL     1      -5.199  -1.303  -2.744  0.00  0.00    +0.000 C 
ATOM     36  C   UNL     1      -4.994  -2.329  -1.922  0.00  0.00    +0.000 C 
ATOM     37  O   UNL     1      -4.970  -2.080  -0.555  0.00  0.00    +0.000 OA
ATOM     38  C   UNL     1      -5.425  -0.707  -0.421  0.00  0.00    +0.000 C 
ATOM     39  O   UNL     1      -4.640   0.046   0.644  0.00  0.00    +0.000 OA
ATOM     40  H   UNL     1      -3.144  -0.348  -0.500  0.00  0.00    +0.000 HD
ATOM     41  H   UNL     1      -5.631   1.601  -0.351  0.00  0.00    +0.000 HD
ATOM     42  H   UNL     1      -4.368   2.665  -0.536  0.00  0.00    +0.000 HD
ATOM     43  H   UNL     1      -3.769   0.377  -2.621  0.00  0.00    +0.000 HD
ATOM     44  H   UNL     1      -5.228  -1.355  -3.807  0.00  0.00    +0.000 HD
ATOM     45  H   UNL     1      -4.814  -3.361  -2.188  0.00  0.00    +0.000 HD
ATOM     46  H   UNL     1      -6.469  -0.733  -0.078  0.00  0.00    +0.000 HD
BRANCH  32  47
ATOM     47  C   UNL     1      -2.891   3.000  -2.897  0.00  0.00    +0.000 C 
ATOM     48  H   UNL     1      -3.834   3.165  -3.434  0.00  0.00    +0.000 HD
ATOM     49  H   UNL     1      -2.739   3.905  -2.306  0.00  0.00    +0.000 HD
ATOM     50  H   UNL     1      -2.128   2.879  -3.672  0.00  0.00    +0.000 HD
ENDBRANCH  32  47
BRANCH  34  51
ATOM     51  O   UNL     1      -6.681   0.438  -2.306  0.00  0.00    +0.000 OA
ATOM     52  H   UNL     1      -6.564   0.987  -3.104  0.00  0.00    +0.000 HD
ENDBRANCH  34  51
ENDBRANCH  14  28
BRANCH  14  53
ATOM     53  C   UNL     1      -2.312   3.154   1.305  0.00  0.00    +0.000 C 
ATOM     54  H   UNL     1      -1.704   3.827   1.920  0.00  0.00    +0.000 HD
ATOM     55  H   UNL     1      -2.986   3.806   0.736  0.00  0.00    +0.000 HD
ATOM     56  H   UNL     1      -2.949   2.538   1.946  0.00  0.00    +0.000 HD
ENDBRANCH  14  53
BRANCH  12  57
ATOM     57  C   UNL     1      -1.412  -0.275   3.157  0.00  0.00    +0.000 C 
ATOM     58  O   UNL     1      -0.902  -1.383   3.279  0.00  0.00    +0.000 OA
BRANCH  57  59
ATOM     59  O   UNL     1      -2.733  -0.012   3.365  0.00  0.00    +0.000 OA
BRANCH  59  60
ATOM     60  C   UNL     1      -3.504  -1.152   3.756  0.00  0.00    +0.000 C 
ATOM     61  H   UNL     1      -4.364  -0.800   4.333  0.00  0.00    +0.000 HD
ATOM     62  H   UNL     1      -3.864  -1.669   2.862  0.00  0.00    +0.000 HD
ATOM     63  H   UNL     1      -2.941  -1.846   4.391  0.00  0.00    +0.000 HD
ENDBRANCH  59  60
ENDBRANCH  57  59
ENDBRANCH  12  57
BRANCH  15  64
ATOM     64  O   UNL     1      -0.596   3.291  -1.857  0.00  0.00    +0.000 OA
ATOM     65  H   UNL     1      -0.529   2.356  -2.116  0.00  0.00    +0.000 HD
ENDBRANCH  15  64
BRANCH  12  66
ATOM     66  O   UNL     1      -1.026   2.206   3.392  0.00  0.00    +0.000 OA
ATOM     67  H   UNL     1      -0.725   2.072   4.310  0.00  0.00    +0.000 HD
ENDBRANCH  12  66
BRANCH   4  68
ATOM     68  C   UNL     1       3.886   2.543   0.224  0.00  0.00    +0.000 C 
ATOM     69  O   UNL     1       4.153   1.963   1.273  0.00  0.00    +0.000 OA
BRANCH  68  70
ATOM     70  O   UNL     1       4.561   3.633  -0.212  0.00  0.00    +0.000 OA
BRANCH  70  71
ATOM     71  C   UNL     1       5.612   4.055   0.657  0.00  0.00    +0.000 C 
ATOM     72  H   UNL     1       6.423   3.321   0.631  0.00  0.00    +0.000 HD
ATOM     73  H   UNL     1       5.244   4.191   1.680  0.00  0.00    +0.000 HD
ATOM     74  H   UNL     1       5.992   5.014   0.297  0.00  0.00    +0.000 HD
ENDBRANCH  70  71
ENDBRANCH  68  70
ENDBRANCH   4  68
BRANCH   1  75
ATOM     75  O   UNL     1       0.592  -1.381   0.647  0.00  0.00    +0.000 OA
BRANCH  75  76
ATOM     76  C   UNL     1       0.985  -2.654   0.918  0.00  0.00    +0.000 C 
ATOM     77  O   UNL     1       2.142  -2.999   1.115  0.00  0.00    +0.000 OA
BRANCH  76  79
ATOM     78  C   UNL     1       0.043  -4.787   1.448  0.00  0.00    +0.000 C 
ATOM     79  C   UNL     1      -0.155  -3.603   0.843  0.00  0.00    +0.000 C 
ATOM     80  H   UNL     1       0.992  -4.983   1.943  0.00  0.00    +0.000 HD
BRANCH  78  81
ATOM     81  C   UNL     1      -0.943  -5.915   1.557  0.00  0.00    +0.000 C 
ATOM     82  H   UNL     1      -1.906  -5.686   1.102  0.00  0.00    +0.000 HD
ATOM     83  H   UNL     1      -0.533  -6.805   1.073  0.00  0.00    +0.000 HD
ATOM     84  H   UNL     1      -1.112  -6.146   2.614  0.00  0.00    +0.000 HD
ENDBRANCH  78  81
BRANCH  79  85
ATOM     85  C   UNL     1      -1.411  -3.213   0.127  0.00  0.00    +0.000 C 
ATOM     86  H   UNL     1      -1.303  -2.303  -0.472  0.00  0.00    +0.000 HD
ATOM     87  H   UNL     1      -2.237  -3.079   0.821  0.00  0.00    +0.000 HD
ATOM     88  H   UNL     1      -1.687  -4.007  -0.600  0.00  0.00    +0.000 HD
ENDBRANCH  79  85
ENDBRANCH  76  79
ENDBRANCH  75  76
ENDBRANCH   1  75
BRANCH   3  89
ATOM     89  O   UNL     1       3.422   0.597  -2.642  0.00  0.00    +0.000 OA
BRANCH  89  90
ATOM     90  C   UNL     1       4.294  -0.324  -3.143  0.00  0.00    +0.000 C 
ATOM     91  O   UNL     1       5.013  -1.053  -2.489  0.00  0.00    +0.000 OA
BRANCH  90  92
ATOM     92  C   UNL     1       4.239  -0.318  -4.641  0.00  0.00    +0.000 C 
ATOM     93  H   UNL     1       3.220  -0.556  -4.972  0.00  0.00    +0.000 HD
ATOM     94  H   UNL     1       4.912  -1.084  -5.029  0.00  0.00    +0.000 HD
ATOM     95  H   UNL     1       4.547   0.656  -5.023  0.00  0.00    +0.000 HD
ENDBRANCH  90  92
ENDBRANCH  89  90
ENDBRANCH   3  89
TORSDOF 20
