REMARK SMILES CC(=O)O[C@@H]1C[C@H]2C(C)(C)C(=O)C=C[C@]2(C)[C@H]2CC[C@@]3(C)[C@H](c4ccoc4)OC(=O)[C@H]4O[C@]43[C@@]21C
REMARK SMILES IDX 4 1 5 2 32 3 33 4 31 5 34 6 20 7 29 8 17 9 19 10 22 11 28 12
REMARK SMILES IDX 30 13 15 14 18 15 6 16 7 17 14 18 8 19 13 20 11 21 12 22
REMARK SMILES IDX 35 23 21 24 16 25 9 26 10 27 23 28 24 29 27 30 25 31 26 32
REMARK SMILES IDX 2 33 3 34 1 35
REMARK H PARENT
ROOT
ATOM      1  O   UNL     1       1.022  -1.886   0.545  1.00  0.00    -0.462 OA
ENDROOT
BRANCH   1   2
ATOM      2  C   UNL     1       1.221  -1.464  -0.810  1.00  0.00     0.186 C 
ATOM      3  O   UNL     1      -1.879  -1.404  -1.848  1.00  0.00    -0.352 OA
ATOM      4  C   UNL     1      -1.244  -0.707  -0.738  1.00  0.00     0.125 C 
ATOM      5  C   UNL     1      -1.760  -2.143  -0.647  1.00  0.00     0.262 C 
ATOM      6  C   UNL     1       0.234  -0.305  -1.137  1.00  0.00     0.041 C 
ATOM      7  C   UNL     1      -2.153   0.334  -0.054  1.00  0.00     0.042 C 
ATOM      8  C   UNL     1      -3.075  -2.439  -0.035  1.00  0.00     0.339 C 
ATOM      9  C   UNL     1       0.679   0.974  -0.331  1.00  0.00     0.012 C 
ATOM     10  C   UNL     1      -1.801   1.719  -0.632  1.00  0.00     0.014 C 
ATOM     11  C   UNL     1      -3.648  -0.049  -0.382  1.00  0.00     0.219 C 
ATOM     12  O   UNL     1      -3.948  -1.397   0.103  1.00  0.00    -0.455 OA
ATOM     13  O   UNL     1      -3.346  -3.575   0.334  1.00  0.00    -0.249 OA
ATOM     14  C   UNL     1       2.209   1.398  -0.472  1.00  0.00    -0.007 C 
ATOM     15  C   UNL     1      -0.336   2.136  -0.460  1.00  0.00     0.006 C 
ATOM     16  C   UNL     1       2.702  -1.078  -0.968  1.00  0.00     0.051 C 
ATOM     17  C   UNL     1       3.070   0.140  -0.092  1.00  0.00     0.016 C 
ATOM     18  C   UNL     1       2.557   2.491   0.531  1.00  0.00    -0.016 C 
ATOM     19  C   UNL     1       4.604   0.399   0.076  1.00  0.00     0.031 C 
ATOM     20  C   UNL     1       3.719   2.593   1.185  1.00  0.00     0.044 C 
ATOM     21  C   UNL     1       4.826   1.631   0.968  1.00  0.00     0.161 C 
ATOM     22  O   UNL     1       5.915   1.873   1.493  1.00  0.00    -0.294 OA
ATOM     23  C   UNL     1       0.270  -0.051  -2.672  1.00  0.00     0.019 C 
ATOM     24  C   UNL     1      -1.977   0.305   1.487  1.00  0.00     0.019 C 
ATOM     25  C   UNL     1       2.550   1.995  -1.856  1.00  0.00     0.016 C 
ATOM     26  C   UNL     1       5.256  -0.801   0.809  1.00  0.00     0.020 C 
ATOM     27  C   UNL     1       5.376   0.613  -1.234  1.00  0.00     0.020 C 
BRANCH  11  28
ATOM     28  C   UNL     1      -4.646   0.896   0.180  1.00  0.00     0.031 A 
ATOM     29  C   UNL     1      -5.192   2.025  -0.462  1.00  0.00     0.049 A 
ATOM     30  C   UNL     1      -5.212   0.836   1.425  1.00  0.00     0.202 A 
ATOM     31  C   UNL     1      -6.064   2.584   0.443  1.00  0.00     0.195 A 
ATOM     32  O   UNL     1      -6.082   1.865   1.596  1.00  0.00    -0.472 OA
ENDBRANCH  11  28
ENDBRANCH   1   2
BRANCH   1  33
ATOM     33  C   UNL     1       1.816  -2.912   0.959  1.00  0.00     0.302 C 
ATOM     34  O   UNL     1       2.267  -3.811   0.262  1.00  0.00    -0.253 OA
ATOM     35  C   UNL     1       2.069  -2.785   2.431  1.00  0.00     0.139 C 
ENDBRANCH   1  33
TORSDOF 3
