REMARK SMILES COC(=O)C[C@H]1[C@]2(C)C3=C(C)[C@H](c4ccoc4)C[C@H]3O[C@@H]2[C@@H]2OC(=O)[C@]3(C)C=CC(=O)[C@@]1(C)[C@@H]23
REMARK SMILES IDX 4 1 3 2 5 3 6 4 20 5 21 6 19 7 7 8 22 9 9 10 18 11 23 12
REMARK SMILES IDX 34 13 10 14 12 15 32 16 24 17 26 18 30 19 25 20 28 21 31 22
REMARK SMILES IDX 29 23 8 24 11 25 33 26 27 27 13 28 14 29 17 30 15 31 16 32
REMARK SMILES IDX 2 33 1 34
REMARK H PARENT
ROOT
ATOM      1  O   UNL     1      -2.229  -1.297  -0.466  1.00  0.00    -0.252 OA
ATOM      2  C   UNL     1      -1.645  -2.222   0.082  1.00  0.00     0.305 C 
ENDROOT
BRANCH   2   3
ATOM      3  C   UNL     1      -0.159  -2.439   0.105  1.00  0.00     0.128 C 
BRANCH   3   4
ATOM      4  C   UNL     1       0.603  -1.100   0.052  1.00  0.00     0.027 C 
ATOM      5  O   UNL     1       0.419   2.099   0.248  1.00  0.00    -0.366 OA
ATOM      6  C   UNL     1       0.925   1.227   1.290  1.00  0.00     0.170 C 
ATOM      7  C   UNL     1      -0.886   1.645  -0.092  1.00  0.00     0.146 C 
ATOM      8  C   UNL     1       0.126  -0.119   1.219  1.00  0.00     0.025 C 
ATOM      9  C   UNL     1       2.424   1.017   1.153  1.00  0.00     0.212 C 
ATOM     10  C   UNL     1      -1.176   0.518   0.840  1.00  0.00    -0.033 C 
ATOM     11  C   UNL     1      -2.023   2.609   0.203  1.00  0.00     0.049 C 
ATOM     12  O   UNL     1       3.158   2.221   0.857  1.00  0.00    -0.459 OA
ATOM     13  C   UNL     1       2.716   0.184  -0.052  1.00  0.00     0.068 C 
ATOM     14  C   UNL     1      -2.459   0.496   1.225  1.00  0.00    -0.063 C 
ATOM     15  C   UNL     1      -3.190   1.700   0.658  1.00  0.00     0.051 C 
ATOM     16  C   UNL     1       2.172  -1.240  -0.105  1.00  0.00     0.042 C 
ATOM     17  C   UNL     1       4.159   1.930  -0.064  1.00  0.00     0.316 C 
ATOM     18  C   UNL     1       4.193   0.421  -0.294  1.00  0.00     0.091 C 
ATOM     19  C   UNL     1       2.584  -1.731  -1.525  1.00  0.00     0.162 C 
ATOM     20  O   UNL     1       4.906   2.760  -0.557  1.00  0.00    -0.251 OA
ATOM     21  C   UNL     1       4.466  -0.085  -1.677  1.00  0.00    -0.005 C 
ATOM     22  O   UNL     1       2.028  -2.676  -2.086  1.00  0.00    -0.294 OA
ATOM     23  C   UNL     1       3.739  -1.069  -2.236  1.00  0.00     0.044 C 
ATOM     24  C   UNL     1       0.139  -0.767   2.612  1.00  0.00     0.019 C 
ATOM     25  C   UNL     1      -3.157  -0.420   2.167  1.00  0.00     0.040 C 
ATOM     26  C   UNL     1       2.798  -2.208   0.906  1.00  0.00     0.021 C 
ATOM     27  C   UNL     1       5.227  -0.148   0.684  1.00  0.00     0.029 C 
BRANCH  15  28
ATOM     28  C   UNL     1      -4.085   1.324  -0.459  1.00  0.00    -0.002 A 
ATOM     29  C   UNL     1      -5.459   1.010  -0.374  1.00  0.00     0.046 A 
ATOM     30  C   UNL     1      -3.740   1.211  -1.782  1.00  0.00     0.199 A 
ATOM     31  C   UNL     1      -5.861   0.726  -1.658  1.00  0.00     0.195 A 
ATOM     32  O   UNL     1      -4.819   0.846  -2.522  1.00  0.00    -0.472 OA
ENDBRANCH  15  28
ENDBRANCH   3   4
ENDBRANCH   2   3
BRANCH   2  33
ATOM     33  O   UNL     1      -2.233  -3.237   0.782  1.00  0.00    -0.469 OA
ATOM     34  C   UNL     1      -3.661  -3.185   0.862  1.00  0.00     0.282 C 
ENDBRANCH   2  33
TORSDOF 4
