REMARK SMILES COC(=O)C[C@H]1[C@]2(C)C3=C(C)[C@H](c4ccoc4)C[C@H]3O[C@@H]2[C@H](OC(C)=O)[C@@H]2[C@]1(C)C(=O)C=C[C@@]2(C)C(=O)OC
REMARK SMILES IDX 20 1 31 2 7 3 6 4 28 5 21 6 27 7 22 8 9 9 19 10 34 11 8 12
REMARK SMILES IDX 18 13 10 14 29 15 30 16 12 17 33 18 35 19 32 20 11 21 23 22
REMARK SMILES IDX 24 23 26 24 25 25 5 26 3 27 4 28 2 29 1 30 13 31 14 32 17 33
REMARK SMILES IDX 15 34 16 35 36 36 37 37 38 38 39 39
REMARK H PARENT
ROOT
ATOM      1  O   UNL     1      -0.184   1.712   0.235  1.00  0.00    -0.366 OA
ATOM      2  O   UNL     1      -0.934  -3.289   1.533  1.00  0.00    -0.294 OA
ATOM      3  C   UNL     1       0.408  -0.131  -1.231  1.00  0.00     0.025 C 
ATOM      4  C   UNL     1       0.028  -1.388  -0.355  1.00  0.00     0.027 C 
ATOM      5  C   UNL     1      -1.516  -1.736  -0.285  1.00  0.00     0.042 C 
ATOM      6  C   UNL     1      -0.550   1.065  -1.014  1.00  0.00     0.170 C 
ATOM      7  C   UNL     1      -2.339  -0.426   0.011  1.00  0.00     0.068 C 
ATOM      8  C   UNL     1      -2.028   0.690  -1.007  1.00  0.00     0.211 C 
ATOM      9  C   UNL     1       1.613   0.546  -0.647  1.00  0.00    -0.033 C 
ATOM     10  C   UNL     1       1.166   1.366   0.514  1.00  0.00     0.146 C 
ATOM     11  C   UNL     1      -3.874  -0.670   0.240  1.00  0.00     0.091 C 
ATOM     12  C   UNL     1       0.513  -0.407  -2.740  1.00  0.00     0.019 C 
ATOM     13  C   UNL     1       2.166   2.509   0.506  1.00  0.00     0.049 C 
ATOM     14  C   UNL     1       2.893   0.777  -0.968  1.00  0.00    -0.063 C 
ATOM     15  C   UNL     1      -1.989  -2.501  -1.536  1.00  0.00     0.021 C 
ATOM     16  C   UNL     1      -1.800  -2.660   0.928  1.00  0.00     0.162 C 
ATOM     17  C   UNL     1       3.450   1.891  -0.097  1.00  0.00     0.051 C 
ATOM     18  C   UNL     1      -4.139  -1.943   1.009  1.00  0.00    -0.005 C 
ATOM     19  C   UNL     1      -4.744  -0.622  -1.025  1.00  0.00     0.029 C 
ATOM     20  C   UNL     1      -3.209  -2.836   1.360  1.00  0.00     0.044 C 
ATOM     21  C   UNL     1       3.719   0.214  -2.069  1.00  0.00     0.040 C 
ENDROOT
BRANCH   8  22
ATOM     22  O   UNL     1      -2.774   1.873  -0.725  1.00  0.00    -0.459 OA
BRANCH  22  23
ATOM     23  C   UNL     1      -2.568   2.917  -1.580  1.00  0.00     0.303 C 
ATOM     24  O   UNL     1      -2.267   2.836  -2.763  1.00  0.00    -0.253 OA
ATOM     25  C   UNL     1      -2.765   4.212  -0.852  1.00  0.00     0.139 C 
ENDBRANCH  22  23
ENDBRANCH   8  22
BRANCH   4  26
ATOM     26  C   UNL     1       0.941  -2.584  -0.715  1.00  0.00     0.128 C 
BRANCH  26  27
ATOM     27  C   UNL     1       2.389  -2.214  -0.594  1.00  0.00     0.305 C 
ATOM     28  O   UNL     1       2.865  -1.399   0.184  1.00  0.00    -0.252 OA
BRANCH  27  29
ATOM     29  O   UNL     1       3.087  -2.950  -1.510  1.00  0.00    -0.469 OA
ATOM     30  C   UNL     1       4.500  -2.721  -1.536  1.00  0.00     0.282 C 
ENDBRANCH  27  29
ENDBRANCH  26  27
ENDBRANCH   4  26
BRANCH  17  31
ATOM     31  C   UNL     1       4.370   1.371   0.939  1.00  0.00    -0.002 A 
ATOM     32  C   UNL     1       5.774   1.260   0.846  1.00  0.00     0.046 A 
ATOM     33  C   UNL     1       4.023   0.900   2.180  1.00  0.00     0.199 A 
ATOM     34  C   UNL     1       6.191   0.727   2.043  1.00  0.00     0.195 A 
ATOM     35  O   UNL     1       5.129   0.504   2.862  1.00  0.00    -0.472 OA
ENDBRANCH  17  31
BRANCH  11  36
ATOM     36  C   UNL     1      -4.403   0.380   1.194  1.00  0.00     0.315 C 
ATOM     37  O   UNL     1      -5.307   1.158   0.923  1.00  0.00    -0.251 OA
BRANCH  36  38
ATOM     38  O   UNL     1      -3.718   0.312   2.371  1.00  0.00    -0.468 OA
ATOM     39  C   UNL     1      -4.118   1.256   3.370  1.00  0.00     0.282 C 
ENDBRANCH  36  38
ENDBRANCH  11  36
TORSDOF 8
