MODEL 1
REMARK VINA RESULT:    13.371      0.000      0.000
REMARK INTER + INTRA:          31.472
REMARK INTER:                  25.096
REMARK INTRA:                   6.375
REMARK UNBOUND:                 6.375
REMARK  Name = Azadirachtin
REMARK  20 active torsions:
REMARK  status: ('A' for Active; 'I' for Inactive)
REMARK    1  A    between atoms: C_1  and  C_2
REMARK    2  A    between atoms: C_3  and  C_4
REMARK    3  A    between atoms: C_3  and  C_5
REMARK    4  A    between atoms: C_5  and  O_7
REMARK    5  A    between atoms: O_7  and  C_8
REMARK    6  A    between atoms: C_10  and  O_48
REMARK    7  A    between atoms: C_11  and  C_44
REMARK    8  A    between atoms: C_19  and  C_39
REMARK    9  A    between atoms: C_19  and  O_43
REMARK   10  A    between atoms: C_21  and  C_24
REMARK   11  A    between atoms: C_21  and  C_25
REMARK   12  A    between atoms: C_22  and  O_23
REMARK   13  A    between atoms: C_29  and  C_31
REMARK   14  A    between atoms: C_32  and  O_38
REMARK   15  A    between atoms: C_39  and  O_41
REMARK   16  A    between atoms: O_41  and  C_42
REMARK   17  A    between atoms: C_44  and  O_46
REMARK   18  A    between atoms: O_46  and  C_47
REMARK   19  A    between atoms: O_48  and  C_49
REMARK   20  A    between atoms: C_49  and  C_51
REMARK                            x       y       z     vdW  Elec       q    Type
REMARK                         _______ _______ _______ _____ _____    ______ ____
ROOT
ATOM      1  C   UNL     1      15.654  44.719  63.462  0.00  0.00    +0.000 C 
ATOM      2  C   UNL     1      15.223  45.935  62.595  0.00  0.00    +0.000 C 
ATOM      3  C   UNL     1      13.767  46.441  62.739  0.00  0.00    +0.000 C 
ATOM      4  C   UNL     1      12.746  45.304  62.926  0.00  0.00    +0.000 C 
ATOM      5  C   UNL     1      11.634  45.122  61.890  0.00  0.00    +0.000 C 
ATOM      6  O   UNL     1      11.177  43.757  62.105  0.00  0.00    +0.000 OA
ATOM      7  C   UNL     1      12.306  42.973  62.578  0.00  0.00    +0.000 C 
ATOM      8  C   UNL     1      13.423  43.969  62.687  0.00  0.00    +0.000 C 
ATOM      9  C   UNL     1      14.623  43.514  63.468  0.00  0.00    +0.000 C 
ATOM     10  C   UNL     1      14.357  43.162  64.935  0.00  0.00    +0.000 C 
ATOM     11  O   UNL     1      15.433  42.315  65.300  0.00  0.00    +0.000 OA
ATOM     12  C   UNL     1      15.625  41.388  64.229  0.00  0.00    +0.000 C 
ATOM     13  C   UNL     1      15.134  42.112  62.913  0.00  0.00    +0.000 C 
ATOM     14  C   UNL     1      14.212  41.297  61.790  0.00  0.00    +0.000 C 
ATOM     15  C   UNL     1      12.734  41.911  61.565  0.00  0.00    +0.000 C 
ATOM     16  H   UNL     1      15.784  45.081  64.490  0.00  0.00    +0.000 HD
ATOM     17  H   UNL     1      15.440  45.718  61.539  0.00  0.00    +0.000 HD
ATOM     18  H   UNL     1      15.890  46.779  62.820  0.00  0.00    +0.000 HD
ATOM     19  H   UNL     1      13.723  47.118  63.601  0.00  0.00    +0.000 HD
ATOM     20  H   UNL     1      10.783  45.804  61.961  0.00  0.00    +0.000 HD
ATOM     21  H   UNL     1      12.005  45.183  60.858  0.00  0.00    +0.000 HD
ATOM     22  H   UNL     1      12.015  42.517  63.526  0.00  0.00    +0.000 HD
ATOM     23  H   UNL     1      13.841  44.081  61.673  0.00  0.00    +0.000 HD
ATOM     24  H   UNL     1      14.387  43.999  65.630  0.00  0.00    +0.000 HD
ATOM     25  H   UNL     1      13.420  42.622  65.099  0.00  0.00    +0.000 HD
ATOM     26  H   UNL     1      16.043  42.334  62.346  0.00  0.00    +0.000 HD
ATOM     27  H   UNL     1      11.985  41.111  61.583  0.00  0.00    +0.000 HD
ENDROOT
BRANCH  14  28
ATOM     28  C   UNL     1      15.068  41.189  60.462  0.00  0.00    +0.000 C 
ATOM     29  C   UNL     1      15.417  39.887  59.787  0.00  0.00    +0.000 C 
ATOM     30  C   UNL     1      14.619  40.487  58.509  0.00  0.00    +0.000 C 
ATOM     31  C   UNL     1      15.710  41.432  58.018  0.00  0.00    +0.000 C 
ATOM     32  C   UNL     1      15.416  42.227  59.307  0.00  0.00    +0.000 C 
ATOM     33  O   UNL     1      16.209  42.090  60.484  0.00  0.00    +0.000 OA
ATOM     34  C   UNL     1      16.427  40.245  57.279  0.00  0.00    +0.000 C 
ATOM     35  C   UNL     1      17.911  40.305  57.090  0.00  0.00    +0.000 C 
ATOM     36  C   UNL     1      18.457  39.237  57.666  0.00  0.00    +0.000 C 
ATOM     37  O   UNL     1      17.617  38.335  58.306  0.00  0.00    +0.000 OA
ATOM     38  C   UNL     1      16.275  38.752  57.938  0.00  0.00    +0.000 C 
ATOM     39  O   UNL     1      15.309  38.642  59.109  0.00  0.00    +0.000 OA
ATOM     40  H   UNL     1      16.504  39.910  59.925  0.00  0.00    +0.000 HD
ATOM     41  H   UNL     1      14.215  39.797  57.745  0.00  0.00    +0.000 HD
ATOM     42  H   UNL     1      13.663  40.987  58.765  0.00  0.00    +0.000 HD
ATOM     43  H   UNL     1      16.724  41.643  58.387  0.00  0.00    +0.000 HD
ATOM     44  H   UNL     1      18.440  41.075  56.580  0.00  0.00    +0.000 HD
ATOM     45  H   UNL     1      19.506  38.984  57.723  0.00  0.00    +0.000 HD
ATOM     46  H   UNL     1      15.910  38.060  57.166  0.00  0.00    +0.000 HD
BRANCH  32  47
ATOM     47  C   UNL     1      14.791  43.545  58.995  0.00  0.00    +0.000 C 
ATOM     48  H   UNL     1      13.703  43.429  58.907  0.00  0.00    +0.000 HD
ATOM     49  H   UNL     1      14.934  44.269  59.800  0.00  0.00    +0.000 HD
ATOM     50  H   UNL     1      15.125  43.931  58.027  0.00  0.00    +0.000 HD
ENDBRANCH  32  47
BRANCH  34  51
ATOM     51  O   UNL     1      15.887  40.268  55.940  0.00  0.00    +0.000 OA
ATOM     52  H   UNL     1      16.145  39.434  55.504  0.00  0.00    +0.000 HD
ENDBRANCH  34  51
ENDBRANCH  14  28
BRANCH  14  53
ATOM     53  C   UNL     1      13.939  39.824  62.199  0.00  0.00    +0.000 C 
ATOM     54  H   UNL     1      14.753  39.419  62.812  0.00  0.00    +0.000 HD
ATOM     55  H   UNL     1      13.039  39.748  62.821  0.00  0.00    +0.000 HD
ATOM     56  H   UNL     1      13.770  39.179  61.332  0.00  0.00    +0.000 HD
ENDBRANCH  14  53
BRANCH  12  57
ATOM     57  C   UNL     1      17.165  41.117  64.179  0.00  0.00    +0.000 C 
ATOM     58  O   UNL     1      17.939  41.306  65.111  0.00  0.00    +0.000 OA
BRANCH  57  59
ATOM     59  O   UNL     1      17.537  40.640  62.958  0.00  0.00    +0.000 OA
BRANCH  59  60
ATOM     60  C   UNL     1      17.200  39.268  62.736  0.00  0.00    +0.000 C 
ATOM     61  H   UNL     1      16.771  38.869  63.659  0.00  0.00    +0.000 HD
ATOM     62  H   UNL     1      16.452  39.204  61.940  0.00  0.00    +0.000 HD
ATOM     63  H   UNL     1      18.072  38.653  62.483  0.00  0.00    +0.000 HD
ENDBRANCH  59  60
ENDBRANCH  57  59
ENDBRANCH  12  57
BRANCH  15  64
ATOM     64  O   UNL     1      12.533  42.541  60.301  0.00  0.00    +0.000 OA
ATOM     65  H   UNL     1      13.358  42.502  59.788  0.00  0.00    +0.000 HD
ENDBRANCH  15  64
BRANCH  12  66
ATOM     66  O   UNL     1      14.818  40.311  64.628  0.00  0.00    +0.000 OA
ATOM     67  H   UNL     1      15.202  39.550  64.154  0.00  0.00    +0.000 HD
ENDBRANCH  12  66
BRANCH   4  68
ATOM     68  C   UNL     1      12.128  45.501  64.307  0.00  0.00    +0.000 C 
ATOM     69  O   UNL     1      11.062  44.987  64.634  0.00  0.00    +0.000 OA
BRANCH  68  70
ATOM     70  O   UNL     1      12.902  46.209  65.164  0.00  0.00    +0.000 OA
BRANCH  70  71
ATOM     71  C   UNL     1      12.642  45.941  66.542  0.00  0.00    +0.000 C 
ATOM     72  H   UNL     1      11.951  45.097  66.625  0.00  0.00    +0.000 HD
ATOM     73  H   UNL     1      12.236  46.827  67.043  0.00  0.00    +0.000 HD
ATOM     74  H   UNL     1      13.586  45.675  67.024  0.00  0.00    +0.000 HD
ENDBRANCH  70  71
ENDBRANCH  68  70
ENDBRANCH   4  68
BRANCH   1  75
ATOM     75  O   UNL     1      16.937  44.281  62.963  0.00  0.00    +0.000 OA
BRANCH  75  76
ATOM     76  C   UNL     1      17.847  43.878  63.890  0.00  0.00    +0.000 C 
ATOM     77  O   UNL     1      17.821  44.190  65.073  0.00  0.00    +0.000 OA
BRANCH  76  79
ATOM     78  C   UNL     1      18.676  42.596  62.050  0.00  0.00    +0.000 C 
ATOM     79  C   UNL     1      18.944  43.093  63.270  0.00  0.00    +0.000 C 
ATOM     80  H   UNL     1      17.706  42.787  61.596  0.00  0.00    +0.000 HD
BRANCH  78  81
ATOM     81  C   UNL     1      19.607  41.798  61.182  0.00  0.00    +0.000 C 
ATOM     82  H   UNL     1      20.607  41.701  61.604  0.00  0.00    +0.000 HD
ATOM     83  H   UNL     1      19.195  40.797  61.030  0.00  0.00    +0.000 HD
ATOM     84  H   UNL     1      19.695  42.284  60.205  0.00  0.00    +0.000 HD
ENDBRANCH  78  81
BRANCH  79  85
ATOM     85  C   UNL     1      20.236  42.899  64.002  0.00  0.00    +0.000 C 
ATOM     86  H   UNL     1      20.104  42.731  65.076  0.00  0.00    +0.000 HD
ATOM     87  H   UNL     1      20.902  43.746  63.861  0.00  0.00    +0.000 HD
ATOM     88  H   UNL     1      20.744  41.985  63.627  0.00  0.00    +0.000 HD
ENDBRANCH  79  85
ENDBRANCH  76  79
ENDBRANCH  75  76
ENDBRANCH   1  75
BRANCH   3  89
ATOM     89  O   UNL     1      13.439  47.194  61.544  0.00  0.00    +0.000 OA
BRANCH  89  90
ATOM     90  C   UNL     1      12.130  47.552  61.407  0.00  0.00    +0.000 C 
ATOM     91  O   UNL     1      11.428  48.031  62.276  0.00  0.00    +0.000 OA
BRANCH  90  92
ATOM     92  C   UNL     1      11.668  47.273  60.009  0.00  0.00    +0.000 C 
ATOM     93  H   UNL     1      11.956  46.253  59.723  0.00  0.00    +0.000 HD
ATOM     94  H   UNL     1      12.153  47.970  59.324  0.00  0.00    +0.000 HD
ATOM     95  H   UNL     1      10.586  47.398  59.940  0.00  0.00    +0.000 HD
ENDBRANCH  90  92
ENDBRANCH  89  90
ENDBRANCH   3  89
TORSDOF 20
ENDMDL
MODEL 2
REMARK VINA RESULT:    13.904      1.591      2.253
REMARK INTER + INTRA:          32.471
REMARK INTER:                  31.624
REMARK INTRA:                   0.846
REMARK UNBOUND:                 6.375
REMARK  Name = Azadirachtin
REMARK  20 active torsions:
REMARK  status: ('A' for Active; 'I' for Inactive)
REMARK    1  A    between atoms: C_1  and  C_2
REMARK    2  A    between atoms: C_3  and  C_4
REMARK    3  A    between atoms: C_3  and  C_5
REMARK    4  A    between atoms: C_5  and  O_7
REMARK    5  A    between atoms: O_7  and  C_8
REMARK    6  A    between atoms: C_10  and  O_48
REMARK    7  A    between atoms: C_11  and  C_44
REMARK    8  A    between atoms: C_19  and  C_39
REMARK    9  A    between atoms: C_19  and  O_43
REMARK   10  A    between atoms: C_21  and  C_24
REMARK   11  A    between atoms: C_21  and  C_25
REMARK   12  A    between atoms: C_22  and  O_23
REMARK   13  A    between atoms: C_29  and  C_31
REMARK   14  A    between atoms: C_32  and  O_38
REMARK   15  A    between atoms: C_39  and  O_41
REMARK   16  A    between atoms: O_41  and  C_42
REMARK   17  A    between atoms: C_44  and  O_46
REMARK   18  A    between atoms: O_46  and  C_47
REMARK   19  A    between atoms: O_48  and  C_49
REMARK   20  A    between atoms: C_49  and  C_51
REMARK                            x       y       z     vdW  Elec       q    Type
REMARK                         _______ _______ _______ _____ _____    ______ ____
ROOT
ATOM      1  C   UNL     1      15.041  43.831  62.315  0.00  0.00    +0.000 C 
ATOM      2  C   UNL     1      14.778  45.117  61.482  0.00  0.00    +0.000 C 
ATOM      3  C   UNL     1      13.307  45.560  61.287  0.00  0.00    +0.000 C 
ATOM      4  C   UNL     1      12.340  44.378  61.092  0.00  0.00    +0.000 C 
ATOM      5  C   UNL     1      11.546  44.271  59.788  0.00  0.00    +0.000 C 
ATOM      6  O   UNL     1      11.127  42.877  59.747  0.00  0.00    +0.000 OA
ATOM      7  C   UNL     1      12.140  42.084  60.424  0.00  0.00    +0.000 C 
ATOM      8  C   UNL     1      13.132  43.097  60.915  0.00  0.00    +0.000 C 
ATOM      9  C   UNL     1      14.114  42.600  61.938  0.00  0.00    +0.000 C 
ATOM     10  C   UNL     1      13.500  42.088  63.244  0.00  0.00    +0.000 C 
ATOM     11  O   UNL     1      14.492  41.240  63.797  0.00  0.00    +0.000 OA
ATOM     12  C   UNL     1      15.007  40.438  62.732  0.00  0.00    +0.000 C 
ATOM     13  C   UNL     1      14.831  41.281  61.407  0.00  0.00    +0.000 C 
ATOM     14  C   UNL     1      14.278  40.560  60.011  0.00  0.00    +0.000 C 
ATOM     15  C   UNL     1      12.876  41.148  59.464  0.00  0.00    +0.000 C 
ATOM     16  H   UNL     1      14.881  44.086  63.370  0.00  0.00    +0.000 HD
ATOM     17  H   UNL     1      15.273  45.020  60.505  0.00  0.00    +0.000 HD
ATOM     18  H   UNL     1      15.316  45.953  61.952  0.00  0.00    +0.000 HD
ATOM     19  H   UNL     1      13.004  46.140  62.166  0.00  0.00    +0.000 HD
ATOM     20  H   UNL     1      10.667  44.915  59.697  0.00  0.00    +0.000 HD
ATOM     21  H   UNL     1      12.166  44.452  58.900  0.00  0.00    +0.000 HD
ATOM     22  H   UNL     1      11.641  41.521  61.216  0.00  0.00    +0.000 HD
ATOM     23  H   UNL     1      13.790  43.328  60.061  0.00  0.00    +0.000 HD
ATOM     24  H   UNL     1      13.301  42.847  63.997  0.00  0.00    +0.000 HD
ATOM     25  H   UNL     1      12.585  41.504  63.105  0.00  0.00    +0.000 HD
ATOM     26  H   UNL     1      15.840  41.590  61.122  0.00  0.00    +0.000 HD
ATOM     27  H   UNL     1      12.194  40.327  59.210  0.00  0.00    +0.000 HD
ENDROOT
BRANCH  14  28
ATOM     28  C   UNL     1      15.453  40.619  58.949  0.00  0.00    +0.000 C 
ATOM     29  C   UNL     1      15.771  39.509  57.982  0.00  0.00    +0.000 C 
ATOM     30  C   UNL     1      15.480  40.610  56.826  0.00  0.00    +0.000 C 
ATOM     31  C   UNL     1      16.801  41.363  56.931  0.00  0.00    +0.000 C 
ATOM     32  C   UNL     1      16.277  41.820  58.309  0.00  0.00    +0.000 C 
ATOM     33  O   UNL     1      16.666  41.180  59.522  0.00  0.00    +0.000 OA
ATOM     34  C   UNL     1      17.504  40.290  56.026  0.00  0.00    +0.000 C 
ATOM     35  C   UNL     1      18.970  40.042  56.205  0.00  0.00    +0.000 C 
ATOM     36  C   UNL     1      19.152  38.759  56.507  0.00  0.00    +0.000 C 
ATOM     37  O   UNL     1      18.031  37.944  56.609  0.00  0.00    +0.000 OA
ATOM     38  C   UNL     1      16.936  38.755  56.106  0.00  0.00    +0.000 C 
ATOM     39  O   UNL     1      15.668  38.561  56.926  0.00  0.00    +0.000 OA
ATOM     40  H   UNL     1      16.762  39.232  58.360  0.00  0.00    +0.000 HD
ATOM     41  H   UNL     1      15.210  40.273  55.808  0.00  0.00    +0.000 HD
ATOM     42  H   UNL     1      14.583  41.233  57.010  0.00  0.00    +0.000 HD
ATOM     43  H   UNL     1      17.686  41.216  57.568  0.00  0.00    +0.000 HD
ATOM     44  H   UNL     1      19.738  40.773  56.109  0.00  0.00    +0.000 HD
ATOM     45  H   UNL     1      20.086  38.257  56.712  0.00  0.00    +0.000 HD
ATOM     46  H   UNL     1      16.704  38.409  55.089  0.00  0.00    +0.000 HD
BRANCH  32  47
ATOM     47  C   UNL     1      15.984  43.283  58.315  0.00  0.00    +0.000 C 
ATOM     48  H   UNL     1      16.276  43.724  57.353  0.00  0.00    +0.000 HD
ATOM     49  H   UNL     1      14.916  43.488  58.408  0.00  0.00    +0.000 HD
ATOM     50  H   UNL     1      16.573  43.810  59.071  0.00  0.00    +0.000 HD
ENDBRANCH  32  47
BRANCH  34  51
ATOM     51  O   UNL     1      17.384  40.808  54.683  0.00  0.00    +0.000 OA
ATOM     52  H   UNL     1      18.110  41.445  54.547  0.00  0.00    +0.000 HD
ENDBRANCH  34  51
ENDBRANCH  14  28
BRANCH  14  53
ATOM     53  C   UNL     1      13.995  39.045  60.194  0.00  0.00    +0.000 C 
ATOM     54  H   UNL     1      14.684  38.431  59.604  0.00  0.00    +0.000 HD
ATOM     55  H   UNL     1      14.149  38.738  61.236  0.00  0.00    +0.000 HD
ATOM     56  H   UNL     1      12.961  38.785  59.948  0.00  0.00    +0.000 HD
ENDBRANCH  14  53
BRANCH  12  57
ATOM     57  C   UNL     1      16.521  40.222  63.063  0.00  0.00    +0.000 C 
ATOM     58  O   UNL     1      16.979  40.094  64.193  0.00  0.00    +0.000 OA
BRANCH  57  59
ATOM     59  O   UNL     1      17.270  40.195  61.925  0.00  0.00    +0.000 OA
BRANCH  59  60
ATOM     60  C   UNL     1      18.507  40.906  62.019  0.00  0.00    +0.000 C 
ATOM     61  H   UNL     1      19.276  40.322  61.506  0.00  0.00    +0.000 HD
ATOM     62  H   UNL     1      18.406  41.875  61.521  0.00  0.00    +0.000 HD
ATOM     63  H   UNL     1      18.836  41.049  63.055  0.00  0.00    +0.000 HD
ENDBRANCH  59  60
ENDBRANCH  57  59
ENDBRANCH  12  57
BRANCH  15  64
ATOM     64  O   UNL     1      12.971  41.901  58.256  0.00  0.00    +0.000 OA
ATOM     65  H   UNL     1      13.068  42.844  58.473  0.00  0.00    +0.000 HD
ENDBRANCH  15  64
BRANCH  12  66
ATOM     66  O   UNL     1      14.188  39.301  62.803  0.00  0.00    +0.000 OA
ATOM     67  H   UNL     1      13.379  39.572  62.331  0.00  0.00    +0.000 HD
ENDBRANCH  12  66
BRANCH   4  68
ATOM     68  C   UNL     1      11.377  44.409  62.275  0.00  0.00    +0.000 C 
ATOM     69  O   UNL     1      10.165  44.552  62.137  0.00  0.00    +0.000 OA
BRANCH  68  70
ATOM     70  O   UNL     1      11.962  44.169  63.472  0.00  0.00    +0.000 OA
BRANCH  70  71
ATOM     71  C   UNL     1      12.235  45.345  64.235  0.00  0.00    +0.000 C 
ATOM     72  H   UNL     1      11.324  45.945  64.316  0.00  0.00    +0.000 HD
ATOM     73  H   UNL     1      13.045  45.927  63.781  0.00  0.00    +0.000 HD
ATOM     74  H   UNL     1      12.548  45.040  65.236  0.00  0.00    +0.000 HD
ENDBRANCH  70  71
ENDBRANCH  68  70
ENDBRANCH   4  68
BRANCH   1  75
ATOM     75  O   UNL     1      16.432  43.488  62.131  0.00  0.00    +0.000 OA
BRANCH  75  76
ATOM     76  C   UNL     1      17.306  43.965  63.057  0.00  0.00    +0.000 C 
ATOM     77  O   UNL     1      18.310  44.614  62.798  0.00  0.00    +0.000 OA
BRANCH  76  79
ATOM     78  C   UNL     1      15.706  43.830  64.830  0.00  0.00    +0.000 C 
ATOM     79  C   UNL     1      16.949  43.513  64.426  0.00  0.00    +0.000 C 
ATOM     80  H   UNL     1      15.050  44.382  64.159  0.00  0.00    +0.000 HD
BRANCH  78  81
ATOM     81  C   UNL     1      15.071  43.474  66.143  0.00  0.00    +0.000 C 
ATOM     82  H   UNL     1      15.710  43.689  66.999  0.00  0.00    +0.000 HD
ATOM     83  H   UNL     1      14.137  44.030  66.259  0.00  0.00    +0.000 HD
ATOM     84  H   UNL     1      14.837  42.404  66.153  0.00  0.00    +0.000 HD
ENDBRANCH  78  81
BRANCH  79  85
ATOM     85  C   UNL     1      17.946  42.762  65.253  0.00  0.00    +0.000 C 
ATOM     86  H   UNL     1      18.927  43.247  65.294  0.00  0.00    +0.000 HD
ATOM     87  H   UNL     1      18.074  41.745  64.892  0.00  0.00    +0.000 HD
ATOM     88  H   UNL     1      17.599  42.721  66.308  0.00  0.00    +0.000 HD
ENDBRANCH  79  85
ENDBRANCH  76  79
ENDBRANCH  75  76
ENDBRANCH   1  75
BRANCH   3  89
ATOM     89  O   UNL     1      13.256  46.423  60.123  0.00  0.00    +0.000 OA
BRANCH  89  90
ATOM     90  C   UNL     1      12.157  47.225  60.026  0.00  0.00    +0.000 C 
ATOM     91  O   UNL     1      11.652  47.619  58.994  0.00  0.00    +0.000 OA
BRANCH  90  92
ATOM     92  C   UNL     1      11.642  47.555  61.395  0.00  0.00    +0.000 C 
ATOM     93  H   UNL     1      11.726  48.635  61.568  0.00  0.00    +0.000 HD
ATOM     94  H   UNL     1      12.250  47.041  62.142  0.00  0.00    +0.000 HD
ATOM     95  H   UNL     1      10.605  47.231  61.493  0.00  0.00    +0.000 HD
ENDBRANCH  90  92
ENDBRANCH  89  90
ENDBRANCH   3  89
TORSDOF 20
ENDMDL
MODEL 3
REMARK VINA RESULT:    15.449      1.602      3.353
REMARK INTER + INTRA:          35.372
REMARK INTER:                  29.733
REMARK INTRA:                   5.640
REMARK UNBOUND:                 6.375
REMARK  Name = Azadirachtin
REMARK  20 active torsions:
REMARK  status: ('A' for Active; 'I' for Inactive)
REMARK    1  A    between atoms: C_1  and  C_2
REMARK    2  A    between atoms: C_3  and  C_4
REMARK    3  A    between atoms: C_3  and  C_5
REMARK    4  A    between atoms: C_5  and  O_7
REMARK    5  A    between atoms: O_7  and  C_8
REMARK    6  A    between atoms: C_10  and  O_48
REMARK    7  A    between atoms: C_11  and  C_44
REMARK    8  A    between atoms: C_19  and  C_39
REMARK    9  A    between atoms: C_19  and  O_43
REMARK   10  A    between atoms: C_21  and  C_24
REMARK   11  A    between atoms: C_21  and  C_25
REMARK   12  A    between atoms: C_22  and  O_23
REMARK   13  A    between atoms: C_29  and  C_31
REMARK   14  A    between atoms: C_32  and  O_38
REMARK   15  A    between atoms: C_39  and  O_41
REMARK   16  A    between atoms: O_41  and  C_42
REMARK   17  A    between atoms: C_44  and  O_46
REMARK   18  A    between atoms: O_46  and  C_47
REMARK   19  A    between atoms: O_48  and  C_49
REMARK   20  A    between atoms: C_49  and  C_51
REMARK                            x       y       z     vdW  Elec       q    Type
REMARK                         _______ _______ _______ _____ _____    ______ ____
ROOT
ATOM      1  C   UNL     1      15.545  44.322  62.314  0.00  0.00    +0.000 C 
ATOM      2  C   UNL     1      14.129  44.741  61.830  0.00  0.00    +0.000 C 
ATOM      3  C   UNL     1      12.963  44.642  62.845  0.00  0.00    +0.000 C 
ATOM      4  C   UNL     1      13.065  43.413  63.766  0.00  0.00    +0.000 C 
ATOM      5  C   UNL     1      11.948  42.366  63.739  0.00  0.00    +0.000 C 
ATOM      6  O   UNL     1      12.561  41.187  64.334  0.00  0.00    +0.000 OA
ATOM      7  C   UNL     1      13.980  41.212  64.022  0.00  0.00    +0.000 C 
ATOM      8  C   UNL     1      14.169  42.498  63.273  0.00  0.00    +0.000 C 
ATOM      9  C   UNL     1      15.592  42.954  63.114  0.00  0.00    +0.000 C 
ATOM     10  C   UNL     1      16.344  43.225  64.420  0.00  0.00    +0.000 C 
ATOM     11  O   UNL     1      17.714  43.129  64.069  0.00  0.00    +0.000 OA
ATOM     12  C   UNL     1      17.859  41.979  63.232  0.00  0.00    +0.000 C 
ATOM     13  C   UNL     1      16.473  41.778  62.500  0.00  0.00    +0.000 C 
ATOM     14  C   UNL     1      15.808  40.258  62.345  0.00  0.00    +0.000 C 
ATOM     15  C   UNL     1      14.385  40.072  63.087  0.00  0.00    +0.000 C 
ATOM     16  H   UNL     1      15.920  45.126  62.963  0.00  0.00    +0.000 HD
ATOM     17  H   UNL     1      13.880  44.179  60.919  0.00  0.00    +0.000 HD
ATOM     18  H   UNL     1      14.173  45.781  61.478  0.00  0.00    +0.000 HD
ATOM     19  H   UNL     1      12.959  45.556  63.452  0.00  0.00    +0.000 HD
ATOM     20  H   UNL     1      11.034  42.613  64.285  0.00  0.00    +0.000 HD
ATOM     21  H   UNL     1      11.647  42.097  62.717  0.00  0.00    +0.000 HD
ATOM     22  H   UNL     1      14.524  41.157  64.967  0.00  0.00    +0.000 HD
ATOM     23  H   UNL     1      13.876  42.297  62.229  0.00  0.00    +0.000 HD
ATOM     24  H   UNL     1      16.212  44.221  64.838  0.00  0.00    +0.000 HD
ATOM     25  H   UNL     1      16.139  42.498  65.211  0.00  0.00    +0.000 HD
ATOM     26  H   UNL     1      16.651  42.058  61.458  0.00  0.00    +0.000 HD
ATOM     27  H   UNL     1      14.380  39.144  63.671  0.00  0.00    +0.000 HD
ENDROOT
BRANCH  14  28
ATOM     28  C   UNL     1      15.774  39.911  60.800  0.00  0.00    +0.000 C 
ATOM     29  C   UNL     1      16.955  40.059  59.876  0.00  0.00    +0.000 C 
ATOM     30  C   UNL     1      16.791  38.465  59.624  0.00  0.00    +0.000 C 
ATOM     31  C   UNL     1      15.600  38.536  58.673  0.00  0.00    +0.000 C 
ATOM     32  C   UNL     1      14.810  39.008  59.912  0.00  0.00    +0.000 C 
ATOM     33  O   UNL     1      14.553  40.387  60.170  0.00  0.00    +0.000 OA
ATOM     34  C   UNL     1      16.561  38.841  57.468  0.00  0.00    +0.000 C 
ATOM     35  C   UNL     1      16.041  39.646  56.318  0.00  0.00    +0.000 C 
ATOM     36  C   UNL     1      16.802  40.728  56.175  0.00  0.00    +0.000 C 
ATOM     37  O   UNL     1      17.855  40.911  57.064  0.00  0.00    +0.000 OA
ATOM     38  C   UNL     1      17.940  39.661  57.799  0.00  0.00    +0.000 C 
ATOM     39  O   UNL     1      18.233  39.893  59.275  0.00  0.00    +0.000 OA
ATOM     40  H   UNL     1      16.564  40.849  59.225  0.00  0.00    +0.000 HD
ATOM     41  H   UNL     1      17.654  37.880  59.255  0.00  0.00    +0.000 HD
ATOM     42  H   UNL     1      16.606  37.877  60.544  0.00  0.00    +0.000 HD
ATOM     43  H   UNL     1      15.031  39.384  58.266  0.00  0.00    +0.000 HD
ATOM     44  H   UNL     1      15.200  39.394  55.715  0.00  0.00    +0.000 HD
ATOM     45  H   UNL     1      16.691  41.521  55.450  0.00  0.00    +0.000 HD
ATOM     46  H   UNL     1      18.793  39.095  57.398  0.00  0.00    +0.000 HD
BRANCH  32  47
ATOM     47  C   UNL     1      13.811  37.985  60.334  0.00  0.00    +0.000 C 
ATOM     48  H   UNL     1      12.812  38.274  59.983  0.00  0.00    +0.000 HD
ATOM     49  H   UNL     1      14.001  37.012  59.878  0.00  0.00    +0.000 HD
ATOM     50  H   UNL     1      13.733  37.922  61.424  0.00  0.00    +0.000 HD
ENDBRANCH  32  47
BRANCH  34  51
ATOM     51  O   UNL     1      16.861  37.547  56.902  0.00  0.00    +0.000 OA
ATOM     52  H   UNL     1      17.739  37.278  57.231  0.00  0.00    +0.000 HD
ENDBRANCH  34  51
ENDBRANCH  14  28
BRANCH  14  53
ATOM     53  C   UNL     1      16.698  39.152  62.974  0.00  0.00    +0.000 C 
ATOM     54  H   UNL     1      16.922  38.358  62.253  0.00  0.00    +0.000 HD
ATOM     55  H   UNL     1      17.671  39.555  63.278  0.00  0.00    +0.000 HD
ATOM     56  H   UNL     1      16.248  38.722  63.873  0.00  0.00    +0.000 HD
ENDBRANCH  14  53
BRANCH  12  57
ATOM     57  C   UNL     1      18.986  42.343  62.210  0.00  0.00    +0.000 C 
ATOM     58  O   UNL     1      19.000  42.000  61.033  0.00  0.00    +0.000 OA
BRANCH  57  59
ATOM     59  O   UNL     1      19.958  43.093  62.802  0.00  0.00    +0.000 OA
BRANCH  59  60
ATOM     60  C   UNL     1      20.746  42.383  63.761  0.00  0.00    +0.000 C 
ATOM     61  H   UNL     1      20.502  42.768  64.755  0.00  0.00    +0.000 HD
ATOM     62  H   UNL     1      20.493  41.320  63.721  0.00  0.00    +0.000 HD
ATOM     63  H   UNL     1      21.823  42.520  63.608  0.00  0.00    +0.000 HD
ENDBRANCH  59  60
ENDBRANCH  57  59
ENDBRANCH  12  57
BRANCH  15  64
ATOM     64  O   UNL     1      13.267  39.932  62.212  0.00  0.00    +0.000 OA
ATOM     65  H   UNL     1      13.107  40.777  61.757  0.00  0.00    +0.000 HD
ENDBRANCH  15  64
BRANCH  12  66
ATOM     66  O   UNL     1      18.166  40.977  64.166  0.00  0.00    +0.000 OA
ATOM     67  H   UNL     1      17.709  41.272  64.976  0.00  0.00    +0.000 HD
ENDBRANCH  12  66
BRANCH   4  68
ATOM     68  C   UNL     1      13.226  43.949  65.186  0.00  0.00    +0.000 C 
ATOM     69  O   UNL     1      13.779  43.308  66.076  0.00  0.00    +0.000 OA
BRANCH  68  70
ATOM     70  O   UNL     1      12.796  45.223  65.348  0.00  0.00    +0.000 OA
BRANCH  70  71
ATOM     71  C   UNL     1      12.661  45.624  66.712  0.00  0.00    +0.000 C 
ATOM     72  H   UNL     1      12.146  46.588  66.759  0.00  0.00    +0.000 HD
ATOM     73  H   UNL     1      13.639  45.682  67.202  0.00  0.00    +0.000 HD
ATOM     74  H   UNL     1      12.058  44.876  67.232  0.00  0.00    +0.000 HD
ENDBRANCH  70  71
ENDBRANCH  68  70
ENDBRANCH   4  68
BRANCH   1  75
ATOM     75  O   UNL     1      16.386  44.249  61.142  0.00  0.00    +0.000 OA
BRANCH  75  76
ATOM     76  C   UNL     1      15.939  43.473  60.118  0.00  0.00    +0.000 C 
ATOM     77  O   UNL     1      16.632  42.692  59.482  0.00  0.00    +0.000 OA
BRANCH  76  79
ATOM     78  C   UNL     1      13.719  42.690  59.698  0.00  0.00    +0.000 C 
ATOM     79  C   UNL     1      14.520  43.766  59.793  0.00  0.00    +0.000 C 
ATOM     80  H   UNL     1      14.135  41.698  59.858  0.00  0.00    +0.000 HD
BRANCH  78  81
ATOM     81  C   UNL     1      12.243  42.692  59.416  0.00  0.00    +0.000 C 
ATOM     82  H   UNL     1      11.640  42.457  60.292  0.00  0.00    +0.000 HD
ATOM     83  H   UNL     1      11.945  43.675  59.042  0.00  0.00    +0.000 HD
ATOM     84  H   UNL     1      12.023  41.950  58.641  0.00  0.00    +0.000 HD
ENDBRANCH  78  81
BRANCH  79  85
ATOM     85  C   UNL     1      14.071  45.181  59.593  0.00  0.00    +0.000 C 
ATOM     86  H   UNL     1      13.008  45.332  59.806  0.00  0.00    +0.000 HD
ATOM     87  H   UNL     1      14.278  45.522  58.582  0.00  0.00    +0.000 HD
ATOM     88  H   UNL     1      14.607  45.845  60.305  0.00  0.00    +0.000 HD
ENDBRANCH  79  85
ENDBRANCH  76  79
ENDBRANCH  75  76
ENDBRANCH   1  75
BRANCH   3  89
ATOM     89  O   UNL     1      11.725  44.583  62.093  0.00  0.00    +0.000 OA
BRANCH  89  90
ATOM     90  C   UNL     1      11.195  45.784  61.725  0.00  0.00    +0.000 C 
ATOM     91  O   UNL     1      11.468  46.862  62.213  0.00  0.00    +0.000 OA
BRANCH  90  92
ATOM     92  C   UNL     1      10.213  45.588  60.609  0.00  0.00    +0.000 C 
ATOM     93  H   UNL     1       9.861  44.549  60.607  0.00  0.00    +0.000 HD
ATOM     94  H   UNL     1      10.708  45.783  59.656  0.00  0.00    +0.000 HD
ATOM     95  H   UNL     1       9.374  46.276  60.723  0.00  0.00    +0.000 HD
ENDBRANCH  90  92
ENDBRANCH  89  90
ENDBRANCH   3  89
TORSDOF 20
ENDMDL
