MODEL 1
REMARK VINA RESULT:   -12.121      0.000      0.000
REMARK INTER + INTRA:         -15.744
REMARK INTER:                 -15.309
REMARK INTRA:                  -0.434
REMARK UNBOUND:                -0.434
REMARK SMILES Cc1ccc(-c2cc(C(F)(F)F)nn2-c2ccc(S(N)(=O)=O)cc2)cc1
REMARK SMILES IDX 15 1 16 2 24 3 18 4 17 5 23 6 19 7 21 8 22 9 20 10 14 13
REMARK SMILES IDX 13 14 6 15 8 16 7 17 5 18 4 19 25 20 3 21 26 22 2 23 1 24
REMARK SMILES IDX 9 25 10 26 11 27 12 28
REMARK H PARENT 20 11 20 12
ROOT
ATOM      1  C   UNL     1      30.110 -21.707 -17.359  1.00  0.00     0.065 A 
ATOM      2  C   UNL     1      29.478 -20.581 -17.868  1.00  0.00     0.030 A 
ATOM      3  C   UNL     1      29.381 -22.731 -16.770  1.00  0.00     0.030 A 
ATOM      4  C   UNL     1      27.347 -21.500 -17.198  1.00  0.00     0.082 A 
ATOM      5  C   UNL     1      28.088 -20.477 -17.787  1.00  0.00     0.024 A 
ATOM      6  C   UNL     1      27.992 -22.627 -16.689  1.00  0.00     0.024 A 
ENDROOT
BRANCH   4   7
ATOM      7  S   UNL     1      25.608 -21.370 -17.097  1.00  0.00     0.238 S 
ATOM      8  O   UNL     1      25.143 -22.248 -16.032  1.00  0.00    -0.207 OA
ATOM      9  O   UNL     1      25.250 -19.959 -17.079  1.00  0.00    -0.207 OA
BRANCH   7  10
ATOM     10  N   UNL     1      25.144 -22.035 -18.602  1.00  0.00    -0.225 NA
ATOM     11  H   UNL     1      25.890 -22.278 -19.265  1.00  0.00     0.137 HD
ATOM     12  H   UNL     1      24.352 -22.688 -18.609  1.00  0.00     0.137 HD
ENDBRANCH   7  10
ENDBRANCH   4   7
BRANCH   1  13
ATOM     13  N   UNL     1      31.500 -21.811 -17.440  1.00  0.00    -0.233 N 
ATOM     14  N   UNL     1      32.132 -21.374 -18.543  1.00  0.00    -0.163 NA
ATOM     15  C   UNL     1      32.335 -22.326 -16.490  1.00  0.00     0.075 A 
ATOM     16  C   UNL     1      33.416 -21.625 -18.276  1.00  0.00     0.167 A 
ATOM     17  C   UNL     1      33.603 -22.217 -17.013  1.00  0.00     0.064 A 
BRANCH  15  18
ATOM     18  C   UNL     1      31.904 -22.857 -15.221  1.00  0.00     0.000 A 
ATOM     19  C   UNL     1      31.952 -24.232 -14.989  1.00  0.00     0.010 A 
ATOM     20  C   UNL     1      31.440 -21.998 -14.225  1.00  0.00     0.010 A 
ATOM     21  C   UNL     1      31.535 -24.747 -13.760  1.00  0.00     0.004 A 
ATOM     22  C   UNL     1      31.023 -22.512 -12.998  1.00  0.00     0.004 A 
ATOM     23  C   UNL     1      31.071 -23.887 -12.766  1.00  0.00    -0.051 A 
ATOM     24  C   UNL     1      30.624 -24.436 -11.453  1.00  0.00     0.044 C 
ENDBRANCH  15  18
BRANCH  16  25
ATOM     25  C   UNL     1      34.450 -21.280 -19.266  1.00  0.00     0.435 C 
ATOM     26  F   UNL     1      34.935 -20.015 -19.108  1.00  0.00    -0.164 F 
ATOM     27  F   UNL     1      35.537 -22.101 -19.218  1.00  0.00    -0.164 F 
ATOM     28  F   UNL     1      33.978 -21.348 -20.543  1.00  0.00    -0.164 F 
ENDBRANCH  16  25
ENDBRANCH   1  13
TORSDOF 5
ENDMDL
MODEL 2
REMARK VINA RESULT:   -10.815      4.849      7.014
REMARK INTER + INTRA:         -14.094
REMARK INTER:                 -13.287
REMARK INTRA:                  -0.807
REMARK UNBOUND:                -0.434
REMARK SMILES Cc1ccc(-c2cc(C(F)(F)F)nn2-c2ccc(S(N)(=O)=O)cc2)cc1
REMARK SMILES IDX 15 1 16 2 24 3 18 4 17 5 23 6 19 7 21 8 22 9 20 10 14 13
REMARK SMILES IDX 13 14 6 15 8 16 7 17 5 18 4 19 25 20 3 21 26 22 2 23 1 24
REMARK SMILES IDX 9 25 10 26 11 27 12 28
REMARK H PARENT 20 11 20 12
ROOT
ATOM      1  C   UNL     1      30.229 -23.098 -15.878  1.00  0.00     0.065 A 
ATOM      2  C   UNL     1      30.229 -23.073 -14.490  1.00  0.00     0.030 A 
ATOM      3  C   UNL     1      31.068 -23.953 -16.578  1.00  0.00     0.030 A 
ATOM      4  C   UNL     1      31.934 -24.785 -14.481  1.00  0.00     0.082 A 
ATOM      5  C   UNL     1      31.086 -23.921 -13.788  1.00  0.00     0.024 A 
ATOM      6  C   UNL     1      31.925 -24.801 -15.876  1.00  0.00     0.024 A 
ENDROOT
BRANCH   4   7
ATOM      7  S   UNL     1      33.006 -25.847 -13.602  1.00  0.00     0.238 S 
ATOM      8  O   UNL     1      32.220 -26.945 -13.057  1.00  0.00    -0.207 OA
ATOM      9  O   UNL     1      34.163 -26.131 -14.439  1.00  0.00    -0.207 OA
BRANCH   7  10
ATOM     10  N   UNL     1      33.494 -24.828 -12.320  1.00  0.00    -0.225 NA
ATOM     11  H   UNL     1      34.401 -24.355 -12.406  1.00  0.00     0.137 HD
ATOM     12  H   UNL     1      32.771 -24.261 -11.862  1.00  0.00     0.137 HD
ENDBRANCH   7  10
ENDBRANCH   4   7
BRANCH   1  13
ATOM     13  N   UNL     1      29.371 -22.248 -16.580  1.00  0.00    -0.233 N 
ATOM     14  N   UNL     1      28.044 -22.343 -16.389  1.00  0.00    -0.163 NA
ATOM     15  C   UNL     1      29.734 -21.287 -17.480  1.00  0.00     0.075 A 
ATOM     16  C   UNL     1      27.553 -21.405 -17.201  1.00  0.00     0.167 A 
ATOM     17  C   UNL     1      28.558 -20.715 -17.906  1.00  0.00     0.064 A 
BRANCH  15  18
ATOM     18  C   UNL     1      31.093 -20.989 -17.858  1.00  0.00     0.000 A 
ATOM     19  C   UNL     1      31.791 -19.972 -17.207  1.00  0.00     0.010 A 
ATOM     20  C   UNL     1      31.711 -21.718 -18.875  1.00  0.00     0.010 A 
ATOM     21  C   UNL     1      33.106 -19.683 -17.572  1.00  0.00     0.004 A 
ATOM     22  C   UNL     1      33.025 -21.429 -19.241  1.00  0.00     0.004 A 
ATOM     23  C   UNL     1      33.723 -20.412 -18.589  1.00  0.00    -0.051 A 
ATOM     24  C   UNL     1      35.128 -20.104 -18.981  1.00  0.00     0.044 C 
ENDBRANCH  15  18
BRANCH  16  25
ATOM     25  C   UNL     1      26.098 -21.192 -17.277  1.00  0.00     0.435 C 
ATOM     26  F   UNL     1      25.740 -19.890 -17.086  1.00  0.00    -0.164 F 
ATOM     27  F   UNL     1      25.564 -21.549 -18.480  1.00  0.00    -0.164 F 
ATOM     28  F   UNL     1      25.427 -21.912 -16.335  1.00  0.00    -0.164 F 
ENDBRANCH  16  25
ENDBRANCH   1  13
TORSDOF 5
ENDMDL
MODEL 3
REMARK VINA RESULT:   -10.401      4.967      6.304
REMARK INTER + INTRA:         -13.572
REMARK INTER:                 -12.926
REMARK INTRA:                  -0.645
REMARK UNBOUND:                -0.434
REMARK SMILES Cc1ccc(-c2cc(C(F)(F)F)nn2-c2ccc(S(N)(=O)=O)cc2)cc1
REMARK SMILES IDX 15 1 16 2 24 3 18 4 17 5 23 6 19 7 21 8 22 9 20 10 14 13
REMARK SMILES IDX 13 14 6 15 8 16 7 17 5 18 4 19 25 20 3 21 26 22 2 23 1 24
REMARK SMILES IDX 9 25 10 26 11 27 12 28
REMARK H PARENT 20 11 20 12
ROOT
ATOM      1  C   UNL     1      30.904 -21.226 -17.582  1.00  0.00     0.065 A 
ATOM      2  C   UNL     1      31.562 -21.914 -18.593  1.00  0.00     0.030 A 
ATOM      3  C   UNL     1      31.475 -20.111 -16.986  1.00  0.00     0.030 A 
ATOM      4  C   UNL     1      33.402 -20.357 -18.424  1.00  0.00     0.082 A 
ATOM      5  C   UNL     1      32.818 -21.476 -19.016  1.00  0.00     0.024 A 
ATOM      6  C   UNL     1      32.731 -19.674 -17.410  1.00  0.00     0.024 A 
ENDROOT
BRANCH   4   7
ATOM      7  S   UNL     1      34.973 -19.809 -18.954  1.00  0.00     0.238 S 
ATOM      8  O   UNL     1      35.679 -19.258 -17.806  1.00  0.00    -0.207 OA
ATOM      9  O   UNL     1      35.589 -20.867 -19.744  1.00  0.00    -0.207 OA
BRANCH   7  10
ATOM     10  N   UNL     1      34.536 -18.529 -19.998  1.00  0.00    -0.225 NA
ATOM     11  H   UNL     1      34.845 -17.582 -19.747  1.00  0.00     0.137 HD
ATOM     12  H   UNL     1      34.543 -18.714 -21.008  1.00  0.00     0.137 HD
ENDBRANCH   7  10
ENDBRANCH   4   7
BRANCH   1  13
ATOM     13  N   UNL     1      29.647 -21.664 -17.159  1.00  0.00    -0.233 N 
ATOM     14  N   UNL     1      28.543 -21.051 -17.620  1.00  0.00    -0.163 NA
ATOM     15  C   UNL     1      29.391 -22.687 -16.292  1.00  0.00     0.075 A 
ATOM     16  C   UNL     1      27.554 -21.715 -17.018  1.00  0.00     0.167 A 
ATOM     17  C   UNL     1      28.022 -22.745 -16.180  1.00  0.00     0.064 A 
BRANCH  15  18
ATOM     18  C   UNL     1      30.402 -23.499 -15.661  1.00  0.00     0.000 A 
ATOM     19  C   UNL     1      31.304 -24.221 -16.442  1.00  0.00     0.010 A 
ATOM     20  C   UNL     1      30.477 -23.563 -14.269  1.00  0.00     0.010 A 
ATOM     21  C   UNL     1      32.283 -25.007 -15.831  1.00  0.00     0.004 A 
ATOM     22  C   UNL     1      31.455 -24.349 -13.659  1.00  0.00     0.004 A 
ATOM     23  C   UNL     1      32.357 -25.070 -14.440  1.00  0.00    -0.051 A 
ATOM     24  C   UNL     1      33.402 -25.910 -13.786  1.00  0.00     0.044 C 
ENDBRANCH  15  18
BRANCH  16  25
ATOM     25  C   UNL     1      26.155 -21.333 -17.274  1.00  0.00     0.435 C 
ATOM     26  F   UNL     1      25.776 -21.539 -18.568  1.00  0.00    -0.164 F 
ATOM     27  F   UNL     1      25.260 -22.025 -16.512  1.00  0.00    -0.164 F 
ATOM     28  F   UNL     1      25.931 -20.013 -17.019  1.00  0.00    -0.164 F 
ENDBRANCH  16  25
ENDBRANCH   1  13
TORSDOF 5
ENDMDL
MODEL 4
REMARK VINA RESULT:    -9.780      3.589      5.516
REMARK INTER + INTRA:         -12.787
REMARK INTER:                 -12.911
REMARK INTRA:                   0.124
REMARK UNBOUND:                -0.434
REMARK SMILES Cc1ccc(-c2cc(C(F)(F)F)nn2-c2ccc(S(N)(=O)=O)cc2)cc1
REMARK SMILES IDX 15 1 16 2 24 3 18 4 17 5 23 6 19 7 21 8 22 9 20 10 14 13
REMARK SMILES IDX 13 14 6 15 8 16 7 17 5 18 4 19 25 20 3 21 26 22 2 23 1 24
REMARK SMILES IDX 9 25 10 26 11 27 12 28
REMARK H PARENT 20 11 20 12
ROOT
ATOM      1  C   UNL     1      32.699 -22.819 -15.889  1.00  0.00     0.065 A 
ATOM      2  C   UNL     1      31.965 -22.282 -14.840  1.00  0.00     0.030 A 
ATOM      3  C   UNL     1      33.313 -24.058 -15.771  1.00  0.00     0.030 A 
ATOM      4  C   UNL     1      32.456 -24.244 -13.520  1.00  0.00     0.082 A 
ATOM      5  C   UNL     1      31.843 -22.998 -13.649  1.00  0.00     0.024 A 
ATOM      6  C   UNL     1      33.191 -24.774 -14.580  1.00  0.00     0.024 A 
ENDROOT
BRANCH   4   7
ATOM      7  S   UNL     1      32.303 -25.141 -12.029  1.00  0.00     0.238 S 
ATOM      8  O   UNL     1      31.384 -24.425 -11.155  1.00  0.00    -0.207 OA
ATOM      9  O   UNL     1      32.053 -26.538 -12.354  1.00  0.00    -0.207 OA
BRANCH   7  10
ATOM     10  N   UNL     1      33.886 -24.999 -11.400  1.00  0.00    -0.225 NA
ATOM     11  H   UNL     1      34.666 -24.996 -12.069  1.00  0.00     0.137 HD
ATOM     12  H   UNL     1      34.024 -24.374 -10.597  1.00  0.00     0.137 HD
ENDBRANCH   7  10
ENDBRANCH   4   7
BRANCH   1  13
ATOM     13  N   UNL     1      32.821 -22.102 -17.081  1.00  0.00    -0.233 N 
ATOM     14  N   UNL     1      34.044 -21.849 -17.578  1.00  0.00    -0.163 NA
ATOM     15  C   UNL     1      31.802 -21.601 -17.839  1.00  0.00     0.075 A 
ATOM     16  C   UNL     1      33.783 -21.162 -18.692  1.00  0.00     0.167 A 
ATOM     17  C   UNL     1      32.404 -20.977 -18.906  1.00  0.00     0.064 A 
BRANCH  15  18
ATOM     18  C   UNL     1      30.402 -21.737 -17.521  1.00  0.00     0.000 A 
ATOM     19  C   UNL     1      29.515 -20.701 -17.818  1.00  0.00     0.010 A 
ATOM     20  C   UNL     1      29.933 -22.905 -16.918  1.00  0.00     0.010 A 
ATOM     21  C   UNL     1      28.160 -20.833 -17.511  1.00  0.00     0.004 A 
ATOM     22  C   UNL     1      28.579 -23.036 -16.611  1.00  0.00     0.004 A 
ATOM     23  C   UNL     1      27.693 -22.000 -16.908  1.00  0.00    -0.051 A 
ATOM     24  C   UNL     1      26.245 -22.142 -16.578  1.00  0.00     0.044 C 
ENDBRANCH  15  18
BRANCH  16  25
ATOM     25  C   UNL     1      34.892 -20.694 -19.540  1.00  0.00     0.435 C 
ATOM     26  F   UNL     1      35.966 -21.535 -19.523  1.00  0.00    -0.164 F 
ATOM     27  F   UNL     1      34.547 -20.561 -20.853  1.00  0.00    -0.164 F 
ATOM     28  F   UNL     1      35.358 -19.476 -19.145  1.00  0.00    -0.164 F 
ENDBRANCH  16  25
ENDBRANCH   1  13
TORSDOF 5
ENDMDL
