MODEL 1
REMARK VINA RESULT:    -5.270      0.000      0.000
REMARK INTER + INTRA:          -6.418
REMARK INTER:                  -6.194
REMARK INTRA:                  -0.223
REMARK UNBOUND:                -0.223
REMARK SMILES CC(=O)O[C@@H]1C[C@H]2C(C)(C)C(=O)C=C[C@]2(C)[C@H]2CC[C@@]3(C)[C@H](c4ccoc4)OC(=O)[C@H]4O[C@]43[C@@]21C
REMARK SMILES IDX 4 1 5 2 32 3 33 4 31 5 34 6 20 7 29 8 17 9 19 10 22 11 28 12
REMARK SMILES IDX 30 13 15 14 18 15 6 16 7 17 14 18 8 19 13 20 11 21 12 22
REMARK SMILES IDX 35 23 21 24 16 25 9 26 10 27 23 28 24 29 27 30 25 31 26 32
REMARK SMILES IDX 2 33 3 34 1 35
REMARK H PARENT
ROOT
ATOM      1  O   UNL     1       8.521  54.747  61.715  1.00  0.00    -0.462 OA
ENDROOT
BRANCH   1   2
ATOM      2  C   UNL     1       7.541  54.504  60.698  1.00  0.00     0.186 C 
ATOM      3  O   UNL     1       9.081  52.199  58.965  1.00  0.00    -0.352 OA
ATOM      4  C   UNL     1       8.717  52.231  60.375  1.00  0.00     0.125 C 
ATOM      5  C   UNL     1       9.983  52.881  59.817  1.00  0.00     0.262 C 
ATOM      6  C   UNL     1       7.327  52.969  60.549  1.00  0.00     0.041 C 
ATOM      7  C   UNL     1       8.964  50.899  61.112  1.00  0.00     0.042 C 
ATOM      8  C   UNL     1      11.292  52.197  59.914  1.00  0.00     0.339 C 
ATOM      9  C   UNL     1       6.595  52.437  61.839  1.00  0.00     0.012 C 
ATOM     10  C   UNL     1       7.626  50.137  61.172  1.00  0.00     0.014 C 
ATOM     11  C   UNL     1      10.037  50.089  60.287  1.00  0.00     0.219 C 
ATOM     12  O   UNL     1      11.278  50.856  60.171  1.00  0.00    -0.455 OA
ATOM     13  O   UNL     1      12.333  52.828  59.776  1.00  0.00    -0.249 OA
ATOM     14  C   UNL     1       5.270  53.213  62.266  1.00  0.00    -0.007 C 
ATOM     15  C   UNL     1       6.484  50.893  61.861  1.00  0.00     0.006 C 
ATOM     16  C   UNL     1       6.264  55.271  61.085  1.00  0.00     0.051 C 
ATOM     17  C   UNL     1       5.650  54.732  62.396  1.00  0.00     0.016 C 
ATOM     18  C   UNL     1       4.801  52.756  63.642  1.00  0.00    -0.016 C 
ATOM     19  C   UNL     1       4.559  55.647  63.044  1.00  0.00     0.031 C 
ATOM     20  C   UNL     1       4.262  53.550  64.574  1.00  0.00     0.044 C 
ATOM     21  C   UNL     1       4.039  54.996  64.336  1.00  0.00     0.161 C 
ATOM     22  O   UNL     1       3.404  55.631  65.181  1.00  0.00    -0.294 OA
ATOM     23  C   UNL     1       6.480  52.716  59.268  1.00  0.00     0.019 C 
ATOM     24  C   UNL     1       9.537  51.145  62.533  1.00  0.00     0.019 C 
ATOM     25  C   UNL     1       4.076  52.945  61.323  1.00  0.00     0.016 C 
ATOM     26  C   UNL     1       5.193  57.000  63.455  1.00  0.00     0.020 C 
ATOM     27  C   UNL     1       3.352  55.958  62.147  1.00  0.00     0.020 C 
BRANCH  11  28
ATOM     28  C   UNL     1      10.350  48.754  60.858  1.00  0.00     0.031 A 
ATOM     29  C   UNL     1       9.881  47.509  60.395  1.00  0.00     0.049 A 
ATOM     30  C   UNL     1      11.149  48.499  61.940  1.00  0.00     0.202 A 
ATOM     31  C   UNL     1      10.433  46.567  61.232  1.00  0.00     0.195 A 
ATOM     32  O   UNL     1      11.207  47.163  62.177  1.00  0.00    -0.472 OA
ENDBRANCH  11  28
ENDBRANCH   1   2
BRANCH   1  33
ATOM     33  C   UNL     1       9.310  55.839  61.515  1.00  0.00     0.302 C 
ATOM     34  O   UNL     1       8.942  56.945  61.140  1.00  0.00    -0.253 OA
ATOM     35  C   UNL     1      10.734  55.490  61.826  1.00  0.00     0.139 C 
ENDBRANCH   1  33
TORSDOF 3
ENDMDL
MODEL 2
REMARK VINA RESULT:    -5.113      2.430      7.243
REMARK INTER + INTRA:          -6.233
REMARK INTER:                  -5.839
REMARK INTRA:                  -0.394
REMARK UNBOUND:                -0.223
REMARK SMILES CC(=O)O[C@@H]1C[C@H]2C(C)(C)C(=O)C=C[C@]2(C)[C@H]2CC[C@@]3(C)[C@H](c4ccoc4)OC(=O)[C@H]4O[C@]43[C@@]21C
REMARK SMILES IDX 4 1 5 2 32 3 33 4 31 5 34 6 20 7 29 8 17 9 19 10 22 11 28 12
REMARK SMILES IDX 30 13 15 14 18 15 6 16 7 17 14 18 8 19 13 20 11 21 12 22
REMARK SMILES IDX 35 23 21 24 16 25 9 26 10 27 23 28 24 29 27 30 25 31 26 32
REMARK SMILES IDX 2 33 3 34 1 35
REMARK H PARENT
ROOT
ATOM      1  O   UNL     1       9.931  52.272  62.449  1.00  0.00    -0.462 OA
ENDROOT
BRANCH   1   2
ATOM      2  C   UNL     1      10.205  52.511  61.063  1.00  0.00     0.186 C 
ATOM      3  O   UNL     1       7.198  52.172  59.823  1.00  0.00    -0.352 OA
ATOM      4  C   UNL     1       7.694  53.069  60.857  1.00  0.00     0.125 C 
ATOM      5  C   UNL     1       7.275  51.624  61.126  1.00  0.00     0.262 C 
ATOM      6  C   UNL     1       9.167  53.528  60.503  1.00  0.00     0.041 C 
ATOM      7  C   UNL     1       6.664  54.120  61.317  1.00  0.00     0.042 C 
ATOM      8  C   UNL     1       5.940  51.313  61.686  1.00  0.00     0.339 C 
ATOM      9  C   UNL     1       9.457  54.941  61.138  1.00  0.00     0.012 C 
ATOM     10  C   UNL     1       6.962  55.432  60.565  1.00  0.00     0.014 C 
ATOM     11  C   UNL     1       5.230  53.575  60.951  1.00  0.00     0.219 C 
ATOM     12  O   UNL     1       4.988  52.290  61.609  1.00  0.00    -0.455 OA
ATOM     13  O   UNL     1       5.722  50.223  62.200  1.00  0.00    -0.249 OA
ATOM     14  C   UNL     1      10.960  55.462  61.038  1.00  0.00    -0.007 C 
ATOM     15  C   UNL     1       8.376  55.987  60.771  1.00  0.00     0.006 C 
ATOM     16  C   UNL     1      11.663  52.989  60.949  1.00  0.00     0.051 C 
ATOM     17  C   UNL     1      11.875  54.345  61.657  1.00  0.00     0.016 C 
ATOM     18  C   UNL     1      11.151  56.712  61.889  1.00  0.00    -0.016 C 
ATOM     19  C   UNL     1      13.369  54.749  61.887  1.00  0.00     0.031 C 
ATOM     20  C   UNL     1      12.249  57.000  62.596  1.00  0.00     0.044 C 
ATOM     21  C   UNL     1      13.434  56.109  62.599  1.00  0.00     0.161 C 
ATOM     22  O   UNL     1      14.459  56.511  63.154  1.00  0.00    -0.294 OA
ATOM     23  C   UNL     1       9.304  53.562  58.953  1.00  0.00     0.019 C 
ATOM     24  C   UNL     1       6.721  54.326  62.854  1.00  0.00     0.019 C 
ATOM     25  C   UNL     1      11.365  55.881  59.607  1.00  0.00     0.016 C 
ATOM     26  C   UNL     1      14.045  53.722  62.831  1.00  0.00     0.020 C 
ATOM     27  C   UNL     1      14.224  54.835  60.614  1.00  0.00     0.020 C 
BRANCH  11  28
ATOM     28  C   UNL     1       4.127  54.507  61.298  1.00  0.00     0.031 A 
ATOM     29  C   UNL     1       3.532  54.672  62.565  1.00  0.00     0.049 A 
ATOM     30  C   UNL     1       3.493  55.370  60.447  1.00  0.00     0.202 A 
ATOM     31  C   UNL     1       2.565  55.637  62.399  1.00  0.00     0.195 A 
ATOM     32  O   UNL     1       2.535  56.067  61.111  1.00  0.00    -0.472 OA
ENDBRANCH  11  28
ENDBRANCH   1   2
BRANCH   1  33
ATOM     33  C   UNL     1      10.384  51.085  62.937  1.00  0.00     0.302 C 
ATOM     34  O   UNL     1      11.114  50.926  63.907  1.00  0.00    -0.253 OA
ATOM     35  C   UNL     1       9.850  49.963  62.098  1.00  0.00     0.139 C 
ENDBRANCH   1  33
TORSDOF 3
ENDMDL
MODEL 3
REMARK VINA RESULT:    -4.365     14.007     16.741
REMARK INTER + INTRA:          -5.354
REMARK INTER:                  -5.112
REMARK INTRA:                  -0.243
REMARK UNBOUND:                -0.223
REMARK SMILES CC(=O)O[C@@H]1C[C@H]2C(C)(C)C(=O)C=C[C@]2(C)[C@H]2CC[C@@]3(C)[C@H](c4ccoc4)OC(=O)[C@H]4O[C@]43[C@@]21C
REMARK SMILES IDX 4 1 5 2 32 3 33 4 31 5 34 6 20 7 29 8 17 9 19 10 22 11 28 12
REMARK SMILES IDX 30 13 15 14 18 15 6 16 7 17 14 18 8 19 13 20 11 21 12 22
REMARK SMILES IDX 35 23 21 24 16 25 9 26 10 27 23 28 24 29 27 30 25 31 26 32
REMARK SMILES IDX 2 33 3 34 1 35
REMARK H PARENT
ROOT
ATOM      1  O   UNL     1      12.682  52.185  47.671  1.00  0.00    -0.462 OA
ENDROOT
BRANCH   1   2
ATOM      2  C   UNL     1      13.134  53.269  48.491  1.00  0.00     0.186 C 
ATOM      3  O   UNL     1      16.367  52.812  48.308  1.00  0.00    -0.352 OA
ATOM      4  C   UNL     1      15.384  53.020  47.254  1.00  0.00     0.125 C 
ATOM      5  C   UNL     1      15.666  51.657  47.886  1.00  0.00     0.262 C 
ATOM      6  C   UNL     1      14.273  54.032  47.753  1.00  0.00     0.041 C 
ATOM      7  C   UNL     1      16.002  53.205  45.854  1.00  0.00     0.042 C 
ATOM      8  C   UNL     1      16.548  50.677  47.213  1.00  0.00     0.339 C 
ATOM      9  C   UNL     1      13.650  54.794  46.523  1.00  0.00     0.012 C 
ATOM     10  C   UNL     1      16.074  54.718  45.567  1.00  0.00     0.014 C 
ATOM     11  C   UNL     1      17.446  52.569  45.881  1.00  0.00     0.219 C 
ATOM     12  O   UNL     1      17.372  51.150  46.231  1.00  0.00    -0.455 OA
ATOM     13  O   UNL     1      16.519  49.495  47.532  1.00  0.00    -0.249 OA
ATOM     14  C   UNL     1      12.383  55.711  46.831  1.00  0.00    -0.007 C 
ATOM     15  C   UNL     1      14.729  55.450  45.626  1.00  0.00     0.006 C 
ATOM     16  C   UNL     1      11.915  54.148  48.821  1.00  0.00     0.051 C 
ATOM     17  C   UNL     1      11.324  54.801  47.552  1.00  0.00     0.016 C 
ATOM     18  C   UNL     1      11.743  56.194  45.536  1.00  0.00    -0.016 C 
ATOM     19  C   UNL     1       9.903  55.432  47.729  1.00  0.00     0.031 C 
ATOM     20  C   UNL     1      10.428  56.332  45.333  1.00  0.00     0.044 C 
ATOM     21  C   UNL     1       9.437  56.040  46.396  1.00  0.00     0.161 C 
ATOM     22  O   UNL     1       8.258  56.330  46.184  1.00  0.00    -0.294 OA
ATOM     23  C   UNL     1      14.933  55.018  48.759  1.00  0.00     0.019 C 
ATOM     24  C   UNL     1      15.172  52.465  44.772  1.00  0.00     0.019 C 
ATOM     25  C   UNL     1      12.738  56.997  47.612  1.00  0.00     0.016 C 
ATOM     26  C   UNL     1       8.883  54.322  48.089  1.00  0.00     0.020 C 
ATOM     27  C   UNL     1       9.802  56.518  48.810  1.00  0.00     0.020 C 
BRANCH  11  28
ATOM     28  C   UNL     1      18.188  52.710  44.603  1.00  0.00     0.031 A 
ATOM     29  C   UNL     1      17.696  52.443  43.310  1.00  0.00     0.049 A 
ATOM     30  C   UNL     1      19.484  53.125  44.456  1.00  0.00     0.202 A 
ATOM     31  C   UNL     1      18.735  52.715  42.451  1.00  0.00     0.195 A 
ATOM     32  O   UNL     1      19.829  53.132  43.142  1.00  0.00    -0.472 OA
ENDBRANCH  11  28
ENDBRANCH   1   2
BRANCH   1  33
ATOM     33  C   UNL     1      12.266  51.077  48.345  1.00  0.00     0.302 C 
ATOM     34  O   UNL     1      12.853  50.519  49.262  1.00  0.00    -0.253 OA
ATOM     35  C   UNL     1      10.949  50.622  47.792  1.00  0.00     0.139 C 
ENDBRANCH   1  33
TORSDOF 3
ENDMDL
