MODEL 1
REMARK VINA RESULT:    -7.657      0.000      0.000
REMARK INTER + INTRA:          -9.164
REMARK INTER:                  -9.000
REMARK INTRA:                  -0.164
REMARK UNBOUND:                -0.164
REMARK SMILES CC(=O)O[C@@H]1C[C@H]2C(C)(C)C(=O)C=C[C@]2(C)[C@H]2CC[C@@]3(C)[C@H](c4ccoc4)OC(=O)[C@H]4O[C@]43[C@@]21C
REMARK SMILES IDX 4 1 5 2 32 3 33 4 31 5 34 6 20 7 29 8 17 9 19 10 22 11 28 12
REMARK SMILES IDX 30 13 15 14 18 15 6 16 7 17 14 18 8 19 13 20 11 21 12 22
REMARK SMILES IDX 35 23 21 24 16 25 9 26 10 27 23 28 24 29 27 30 25 31 26 32
REMARK SMILES IDX 2 33 3 34 1 35
REMARK H PARENT
ROOT
ATOM      1  O   UNL     1      25.068 -31.742 -27.939  1.00  0.00    -0.462 OA
ENDROOT
BRANCH   1   2
ATOM      2  C   UNL     1      26.099 -30.954 -28.547  1.00  0.00     0.186 C 
ATOM      3  O   UNL     1      24.592 -28.056 -28.687  1.00  0.00    -0.352 OA
ATOM      4  C   UNL     1      24.872 -28.917 -27.546  1.00  0.00     0.125 C 
ATOM      5  C   UNL     1      23.664 -29.101 -28.464  1.00  0.00     0.262 C 
ATOM      6  C   UNL     1      26.272 -29.629 -27.748  1.00  0.00     0.041 C 
ATOM      7  C   UNL     1      24.538 -28.277 -26.184  1.00  0.00     0.042 C 
ATOM      8  C   UNL     1      22.329 -28.594 -28.070  1.00  0.00     0.339 C 
ATOM      9  C   UNL     1      26.909 -29.968 -26.347  1.00  0.00     0.012 C 
ATOM     10  C   UNL     1      25.846 -27.709 -25.597  1.00  0.00     0.014 C 
ATOM     11  C   UNL     1      23.491 -27.125 -26.442  1.00  0.00     0.219 C 
ATOM     12  O   UNL     1      22.284 -27.664 -27.071  1.00  0.00    -0.455 OA
ATOM     13  O   UNL     1      21.319 -29.012 -28.623  1.00  0.00    -0.249 OA
ATOM     14  C   UNL     1      28.230 -30.860 -26.372  1.00  0.00    -0.007 C 
ATOM     15  C   UNL     1      26.969 -28.736 -25.411  1.00  0.00     0.006 C 
ATOM     16  C   UNL     1      27.375 -31.813 -28.603  1.00  0.00     0.051 C 
ATOM     17  C   UNL     1      27.892 -32.158 -27.189  1.00  0.00     0.016 C 
ATOM     18  C   UNL     1      28.600 -31.308 -24.963  1.00  0.00    -0.016 C 
ATOM     19  C   UNL     1      28.971 -33.290 -27.134  1.00  0.00     0.031 C 
ATOM     20  C   UNL     1      29.108 -32.504 -24.646  1.00  0.00     0.044 C 
ATOM     21  C   UNL     1      29.392 -33.532 -25.675  1.00  0.00     0.161 C 
ATOM     22  O   UNL     1      29.995 -34.549 -25.327  1.00  0.00    -0.294 OA
ATOM     23  C   UNL     1      27.186 -28.676 -28.573  1.00  0.00     0.019 C 
ATOM     24  C   UNL     1      23.891 -29.308 -25.224  1.00  0.00     0.019 C 
ATOM     25  C   UNL     1      29.469 -30.097 -26.893  1.00  0.00     0.016 C 
ATOM     26  C   UNL     1      28.357 -34.618 -27.643  1.00  0.00     0.020 C 
ATOM     27  C   UNL     1      30.238 -33.022 -27.958  1.00  0.00     0.020 C 
BRANCH  11  28
ATOM     28  C   UNL     1      23.103 -26.382 -25.216  1.00  0.00     0.031 A 
ATOM     29  C   UNL     1      22.299 -26.859 -24.162  1.00  0.00     0.049 A 
ATOM     30  C   UNL     1      23.458 -25.100 -24.895  1.00  0.00     0.202 A 
ATOM     31  C   UNL     1      22.217 -25.825 -23.258  1.00  0.00     0.195 A 
ATOM     32  O   UNL     1      22.921 -24.749 -23.698  1.00  0.00    -0.472 OA
ENDBRANCH  11  28
ENDBRANCH   1   2
BRANCH   1  33
ATOM     33  C   UNL     1      24.577 -32.753 -28.707  1.00  0.00     0.302 C 
ATOM     34  O   UNL     1      25.179 -33.757 -29.062  1.00  0.00    -0.253 OA
ATOM     35  C   UNL     1      23.153 -32.457 -29.069  1.00  0.00     0.139 C 
ENDBRANCH   1  33
TORSDOF 3
ENDMDL
MODEL 2
REMARK VINA RESULT:    -7.418      5.040      9.032
REMARK INTER + INTRA:          -8.884
REMARK INTER:                  -8.352
REMARK INTRA:                  -0.532
REMARK UNBOUND:                -0.164
REMARK SMILES CC(=O)O[C@@H]1C[C@H]2C(C)(C)C(=O)C=C[C@]2(C)[C@H]2CC[C@@]3(C)[C@H](c4ccoc4)OC(=O)[C@H]4O[C@]43[C@@]21C
REMARK SMILES IDX 4 1 5 2 32 3 33 4 31 5 34 6 20 7 29 8 17 9 19 10 22 11 28 12
REMARK SMILES IDX 30 13 15 14 18 15 6 16 7 17 14 18 8 19 13 20 11 21 12 22
REMARK SMILES IDX 35 23 21 24 16 25 9 26 10 27 23 28 24 29 27 30 25 31 26 32
REMARK SMILES IDX 2 33 3 34 1 35
REMARK H PARENT
ROOT
ATOM      1  O   UNL     1      22.851 -25.330 -24.271  1.00  0.00    -0.462 OA
ENDROOT
BRANCH   1   2
ATOM      2  C   UNL     1      21.711 -25.855 -23.578  1.00  0.00     0.186 C 
ATOM      3  O   UNL     1      20.817 -23.215 -21.869  1.00  0.00    -0.352 OA
ATOM      4  C   UNL     1      20.979 -23.397 -23.305  1.00  0.00     0.125 C 
ATOM      5  C   UNL     1      22.138 -23.079 -22.360  1.00  0.00     0.262 C 
ATOM      6  C   UNL     1      20.524 -24.857 -23.712  1.00  0.00     0.041 C 
ATOM      7  C   UNL     1      20.502 -22.194 -24.143  1.00  0.00     0.042 C 
ATOM      8  C   UNL     1      22.650 -21.696 -22.225  1.00  0.00     0.339 C 
ATOM      9  C   UNL     1      20.027 -24.867 -25.207  1.00  0.00     0.012 C 
ATOM     10  C   UNL     1      19.078 -22.505 -24.646  1.00  0.00     0.014 C 
ATOM     11  C   UNL     1      20.502 -20.927 -23.203  1.00  0.00     0.219 C 
ATOM     12  O   UNL     1      21.844 -20.686 -22.670  1.00  0.00    -0.455 OA
ATOM     13  O   UNL     1      23.755 -21.488 -21.740  1.00  0.00    -0.249 OA
ATOM     14  C   UNL     1      19.713 -26.299 -25.835  1.00  0.00    -0.007 C 
ATOM     15  C   UNL     1      18.955 -23.784 -25.481  1.00  0.00     0.006 C 
ATOM     16  C   UNL     1      21.414 -27.250 -24.155  1.00  0.00     0.051 C 
ATOM     17  C   UNL     1      21.002 -27.176 -25.642  1.00  0.00     0.016 C 
ATOM     18  C   UNL     1      19.476 -26.186 -27.336  1.00  0.00    -0.016 C 
ATOM     19  C   UNL     1      21.007 -28.543 -26.402  1.00  0.00     0.031 C 
ATOM     20  C   UNL     1      19.872 -27.081 -28.246  1.00  0.00     0.044 C 
ATOM     21  C   UNL     1      20.583 -28.324 -27.864  1.00  0.00     0.161 C 
ATOM     22  O   UNL     1      20.785 -29.169 -28.739  1.00  0.00    -0.294 OA
ATOM     23  C   UNL     1      19.398 -25.303 -22.735  1.00  0.00     0.019 C 
ATOM     24  C   UNL     1      21.468 -21.915 -25.325  1.00  0.00     0.019 C 
ATOM     25  C   UNL     1      18.427 -26.943 -25.269  1.00  0.00     0.016 C 
ATOM     26  C   UNL     1      22.448 -29.112 -26.440  1.00  0.00     0.020 C 
ATOM     27  C   UNL     1      20.100 -29.627 -25.800  1.00  0.00     0.020 C 
BRANCH  11  28
ATOM     28  C   UNL     1      20.021 -19.688 -23.866  1.00  0.00     0.031 A 
ATOM     29  C   UNL     1      18.804 -19.021 -23.623  1.00  0.00     0.049 A 
ATOM     30  C   UNL     1      20.677 -18.976 -24.834  1.00  0.00     0.202 A 
ATOM     31  C   UNL     1      18.799 -17.934 -24.466  1.00  0.00     0.195 A 
ATOM     32  O   UNL     1      19.938 -17.900 -25.208  1.00  0.00    -0.472 OA
ENDBRANCH  11  28
ENDBRANCH   1   2
BRANCH   1  33
ATOM     33  C   UNL     1      24.014 -26.012 -24.082  1.00  0.00     0.302 C 
ATOM     34  O   UNL     1      24.431 -26.462 -23.022  1.00  0.00    -0.253 OA
ATOM     35  C   UNL     1      24.736 -26.141 -25.389  1.00  0.00     0.139 C 
ENDBRANCH   1  33
TORSDOF 3
ENDMDL
MODEL 3
REMARK VINA RESULT:    -7.326      1.531      1.884
REMARK INTER + INTRA:          -8.775
REMARK INTER:                  -8.514
REMARK INTRA:                  -0.261
REMARK UNBOUND:                -0.164
REMARK SMILES CC(=O)O[C@@H]1C[C@H]2C(C)(C)C(=O)C=C[C@]2(C)[C@H]2CC[C@@]3(C)[C@H](c4ccoc4)OC(=O)[C@H]4O[C@]43[C@@]21C
REMARK SMILES IDX 4 1 5 2 32 3 33 4 31 5 34 6 20 7 29 8 17 9 19 10 22 11 28 12
REMARK SMILES IDX 30 13 15 14 18 15 6 16 7 17 14 18 8 19 13 20 11 21 12 22
REMARK SMILES IDX 35 23 21 24 16 25 9 26 10 27 23 28 24 29 27 30 25 31 26 32
REMARK SMILES IDX 2 33 3 34 1 35
REMARK H PARENT
ROOT
ATOM      1  O   UNL     1      24.557 -30.161 -27.727  1.00  0.00    -0.462 OA
ENDROOT
BRANCH   1   2
ATOM      2  C   UNL     1      25.337 -29.324 -28.589  1.00  0.00     0.186 C 
ATOM      3  O   UNL     1      23.551 -26.587 -28.493  1.00  0.00    -0.352 OA
ATOM      4  C   UNL     1      24.169 -27.347 -27.415  1.00  0.00     0.125 C 
ATOM      5  C   UNL     1      22.808 -27.695 -28.019  1.00  0.00     0.262 C 
ATOM      6  C   UNL     1      25.551 -27.941 -27.906  1.00  0.00     0.041 C 
ATOM      7  C   UNL     1      24.089 -26.654 -26.040  1.00  0.00     0.042 C 
ATOM      8  C   UNL     1      21.554 -27.287 -27.349  1.00  0.00     0.339 C 
ATOM      9  C   UNL     1      26.520 -28.133 -26.678  1.00  0.00     0.012 C 
ATOM     10  C   UNL     1      25.430 -25.936 -25.795  1.00  0.00     0.014 C 
ATOM     11  C   UNL     1      22.899 -25.619 -26.095  1.00  0.00     0.219 C 
ATOM     12  O   UNL     1      21.642 -26.303 -26.405  1.00  0.00    -0.455 OA
ATOM     13  O   UNL     1      20.493 -27.827 -27.635  1.00  0.00    -0.249 OA
ATOM     14  C   UNL     1      27.885 -28.902 -26.972  1.00  0.00    -0.007 C 
ATOM     15  C   UNL     1      26.664 -26.844 -25.833  1.00  0.00     0.006 C 
ATOM     16  C   UNL     1      26.647 -30.067 -28.904  1.00  0.00     0.051 C 
ATOM     17  C   UNL     1      27.504 -30.275 -27.635  1.00  0.00     0.016 C 
ATOM     18  C   UNL     1      28.608 -29.226 -25.671  1.00  0.00    -0.016 C 
ATOM     19  C   UNL     1      28.677 -31.299 -27.785  1.00  0.00     0.031 C 
ATOM     20  C   UNL     1      29.294 -30.349 -25.431  1.00  0.00     0.044 C 
ATOM     21  C   UNL     1      29.440 -31.410 -26.455  1.00  0.00     0.161 C 
ATOM     22  O   UNL     1      30.206 -32.346 -26.215  1.00  0.00    -0.294 OA
ATOM     23  C   UNL     1      26.152 -26.965 -28.958  1.00  0.00     0.019 C 
ATOM     24  C   UNL     1      23.784 -27.677 -24.914  1.00  0.00     0.019 C 
ATOM     25  C   UNL     1      28.889 -28.066 -27.797  1.00  0.00     0.016 C 
ATOM     26  C   UNL     1      28.102 -32.707 -28.084  1.00  0.00     0.020 C 
ATOM     27  C   UNL     1      29.691 -30.972 -28.891  1.00  0.00     0.020 C 
BRANCH  11  28
ATOM     28  C   UNL     1      22.724 -24.839 -24.844  1.00  0.00     0.031 A 
ATOM     29  C   UNL     1      22.450 -25.353 -23.561  1.00  0.00     0.049 A 
ATOM     30  C   UNL     1      22.799 -23.478 -24.717  1.00  0.00     0.202 A 
ATOM     31  C   UNL     1      22.376 -24.261 -22.729  1.00  0.00     0.195 A 
ATOM     32  O   UNL     1      22.587 -23.114 -23.426  1.00  0.00    -0.472 OA
ENDBRANCH  11  28
ENDBRANCH   1   2
BRANCH   1  33
ATOM     33  C   UNL     1      24.054 -31.287 -28.305  1.00  0.00     0.302 C 
ATOM     34  O   UNL     1      24.548 -32.406 -28.270  1.00  0.00    -0.253 OA
ATOM     35  C   UNL     1      22.775 -30.956 -29.012  1.00  0.00     0.139 C 
ENDBRANCH   1  33
TORSDOF 3
ENDMDL
MODEL 4
REMARK VINA RESULT:    -7.286      3.058      8.165
REMARK INTER + INTRA:          -8.728
REMARK INTER:                  -8.348
REMARK INTRA:                  -0.381
REMARK UNBOUND:                -0.164
REMARK SMILES CC(=O)O[C@@H]1C[C@H]2C(C)(C)C(=O)C=C[C@]2(C)[C@H]2CC[C@@]3(C)[C@H](c4ccoc4)OC(=O)[C@H]4O[C@]43[C@@]21C
REMARK SMILES IDX 4 1 5 2 32 3 33 4 31 5 34 6 20 7 29 8 17 9 19 10 22 11 28 12
REMARK SMILES IDX 30 13 15 14 18 15 6 16 7 17 14 18 8 19 13 20 11 21 12 22
REMARK SMILES IDX 35 23 21 24 16 25 9 26 10 27 23 28 24 29 27 30 25 31 26 32
REMARK SMILES IDX 2 33 3 34 1 35
REMARK H PARENT
ROOT
ATOM      1  O   UNL     1      21.358 -27.833 -26.456  1.00  0.00    -0.462 OA
ENDROOT
BRANCH   1   2
ATOM      2  C   UNL     1      21.716 -27.830 -25.069  1.00  0.00     0.186 C 
ATOM      3  O   UNL     1      24.504 -29.534 -25.198  1.00  0.00    -0.352 OA
ATOM      4  C   UNL     1      24.117 -28.307 -25.882  1.00  0.00     0.125 C 
ATOM      5  C   UNL     1      23.749 -29.704 -26.383  1.00  0.00     0.262 C 
ATOM      6  C   UNL     1      23.213 -27.427 -24.926  1.00  0.00     0.041 C 
ATOM      7  C   UNL     1      25.268 -27.640 -26.662  1.00  0.00     0.042 C 
ATOM      8  C   UNL     1      24.531 -30.353 -27.460  1.00  0.00     0.339 C 
ATOM      9  C   UNL     1      23.360 -25.903 -25.302  1.00  0.00     0.012 C 
ATOM     10  C   UNL     1      25.848 -26.518 -25.778  1.00  0.00     0.014 C 
ATOM     11  C   UNL     1      26.354 -28.747 -26.951  1.00  0.00     0.219 C 
ATOM     12  O   UNL     1      25.771 -29.845 -27.725  1.00  0.00    -0.455 OA
ATOM     13  O   UNL     1      24.063 -31.299 -28.082  1.00  0.00    -0.249 OA
ATOM     14  C   UNL     1      22.369 -24.898 -24.562  1.00  0.00    -0.007 C 
ATOM     15  C   UNL     1      24.839 -25.447 -25.351  1.00  0.00     0.006 C 
ATOM     16  C   UNL     1      20.749 -26.883 -24.337  1.00  0.00     0.051 C 
ATOM     17  C   UNL     1      20.910 -25.423 -24.814  1.00  0.00     0.016 C 
ATOM     18  C   UNL     1      22.453 -23.509 -25.183  1.00  0.00    -0.016 C 
ATOM     19  C   UNL     1      19.761 -24.452 -24.384  1.00  0.00     0.031 C 
ATOM     20  C   UNL     1      21.417 -22.681 -25.358  1.00  0.00     0.044 C 
ATOM     21  C   UNL     1      20.045 -23.042 -24.925  1.00  0.00     0.161 C 
ATOM     22  O   UNL     1      19.172 -22.173 -24.984  1.00  0.00    -0.294 OA
ATOM     23  C   UNL     1      23.654 -27.696 -23.458  1.00  0.00     0.019 C 
ATOM     24  C   UNL     1      24.773 -27.086 -28.024  1.00  0.00     0.019 C 
ATOM     25  C   UNL     1      22.712 -24.694 -23.068  1.00  0.00     0.016 C 
ATOM     26  C   UNL     1      18.427 -24.911 -25.026  1.00  0.00     0.020 C 
ATOM     27  C   UNL     1      19.530 -24.345 -22.870  1.00  0.00     0.020 C 
BRANCH  11  28
ATOM     28  C   UNL     1      27.552 -28.240 -27.666  1.00  0.00     0.031 A 
ATOM     29  C   UNL     1      28.215 -28.859 -28.744  1.00  0.00     0.049 A 
ATOM     30  C   UNL     1      28.225 -27.077 -27.402  1.00  0.00     0.202 A 
ATOM     31  C   UNL     1      29.259 -28.024 -29.069  1.00  0.00     0.195 A 
ATOM     32  O   UNL     1      29.272 -26.936 -28.256  1.00  0.00    -0.472 OA
ENDBRANCH  11  28
ENDBRANCH   1   2
BRANCH   1  33
ATOM     33  C   UNL     1      20.233 -28.535 -26.767  1.00  0.00     0.302 C 
ATOM     34  O   UNL     1      19.967 -29.676 -26.415  1.00  0.00    -0.253 OA
ATOM     35  C   UNL     1      19.339 -27.693 -27.626  1.00  0.00     0.139 C 
ENDBRANCH   1  33
TORSDOF 3
ENDMDL
MODEL 5
REMARK VINA RESULT:    -6.933      3.172      5.477
REMARK INTER + INTRA:          -8.313
REMARK INTER:                  -7.772
REMARK INTRA:                  -0.541
REMARK UNBOUND:                -0.164
REMARK SMILES CC(=O)O[C@@H]1C[C@H]2C(C)(C)C(=O)C=C[C@]2(C)[C@H]2CC[C@@]3(C)[C@H](c4ccoc4)OC(=O)[C@H]4O[C@]43[C@@]21C
REMARK SMILES IDX 4 1 5 2 32 3 33 4 31 5 34 6 20 7 29 8 17 9 19 10 22 11 28 12
REMARK SMILES IDX 30 13 15 14 18 15 6 16 7 17 14 18 8 19 13 20 11 21 12 22
REMARK SMILES IDX 35 23 21 24 16 25 9 26 10 27 23 28 24 29 27 30 25 31 26 32
REMARK SMILES IDX 2 33 3 34 1 35
REMARK H PARENT
ROOT
ATOM      1  O   UNL     1      22.821 -27.830 -25.427  1.00  0.00    -0.462 OA
ENDROOT
BRANCH   1   2
ATOM      2  C   UNL     1      22.689 -27.590 -26.834  1.00  0.00     0.186 C 
ATOM      3  O   UNL     1      20.366 -25.290 -26.803  1.00  0.00    -0.352 OA
ATOM      4  C   UNL     1      21.672 -25.318 -26.159  1.00  0.00     0.125 C 
ATOM      5  C   UNL     1      20.425 -25.969 -25.562  1.00  0.00     0.262 C 
ATOM      6  C   UNL     1      22.712 -26.056 -27.097  1.00  0.00     0.041 C 
ATOM      7  C   UNL     1      22.067 -23.984 -25.494  1.00  0.00     0.042 C 
ATOM      8  C   UNL     1      19.643 -25.284 -24.508  1.00  0.00     0.339 C 
ATOM      9  C   UNL     1      24.166 -25.521 -26.812  1.00  0.00     0.012 C 
ATOM     10  C   UNL     1      22.984 -23.223 -26.472  1.00  0.00     0.014 C 
ATOM     11  C   UNL     1      20.740 -23.175 -25.221  1.00  0.00     0.219 C 
ATOM     12  O   UNL     1      19.844 -23.942 -24.354  1.00  0.00    -0.455 OA
ATOM     13  O   UNL     1      18.860 -25.915 -23.808  1.00  0.00    -0.249 OA
ATOM     14  C   UNL     1      25.356 -26.296 -27.535  1.00  0.00    -0.007 C 
ATOM     15  C   UNL     1      24.252 -23.976 -26.886  1.00  0.00     0.006 C 
ATOM     16  C   UNL     1      23.816 -28.357 -27.547  1.00  0.00     0.051 C 
ATOM     17  C   UNL     1      25.209 -27.814 -27.159  1.00  0.00     0.016 C 
ATOM     18  C   UNL     1      26.704 -25.835 -26.994  1.00  0.00    -0.016 C 
ATOM     19  C   UNL     1      26.414 -28.728 -27.561  1.00  0.00     0.031 C 
ATOM     20  C   UNL     1      27.763 -26.626 -26.793  1.00  0.00     0.044 C 
ATOM     21  C   UNL     1      27.731 -28.073 -27.114  1.00  0.00     0.161 C 
ATOM     22  O   UNL     1      28.787 -28.706 -27.042  1.00  0.00    -0.294 OA
ATOM     23  C   UNL     1      22.294 -25.808 -28.575  1.00  0.00     0.019 C 
ATOM     24  C   UNL     1      22.771 -24.224 -24.133  1.00  0.00     0.019 C 
ATOM     25  C   UNL     1      25.419 -26.032 -29.057  1.00  0.00     0.016 C 
ATOM     26  C   UNL     1      26.315 -30.080 -26.808  1.00  0.00     0.020 C 
ATOM     27  C   UNL     1      26.522 -29.043 -29.060  1.00  0.00     0.020 C 
BRANCH  11  28
ATOM     28  C   UNL     1      20.967 -21.839 -24.615  1.00  0.00     0.031 A 
ATOM     29  C   UNL     1      21.093 -21.546 -23.243  1.00  0.00     0.049 A 
ATOM     30  C   UNL     1      21.092 -20.652 -25.286  1.00  0.00     0.202 A 
ATOM     31  C   UNL     1      21.290 -20.187 -23.167  1.00  0.00     0.195 A 
ATOM     32  O   UNL     1      21.291 -19.634 -24.409  1.00  0.00    -0.472 OA
ENDBRANCH  11  28
ENDBRANCH   1   2
BRANCH   1  33
ATOM     33  C   UNL     1      22.721 -29.134 -25.046  1.00  0.00     0.302 C 
ATOM     34  O   UNL     1      23.604 -29.815 -24.541  1.00  0.00    -0.253 OA
ATOM     35  C   UNL     1      21.339 -29.635 -25.338  1.00  0.00     0.139 C 
ENDBRANCH   1  33
TORSDOF 3
ENDMDL
MODEL 6
REMARK VINA RESULT:    -6.774      2.901      8.802
REMARK INTER + INTRA:          -8.127
REMARK INTER:                  -7.378
REMARK INTRA:                  -0.749
REMARK UNBOUND:                -0.164
REMARK SMILES CC(=O)O[C@@H]1C[C@H]2C(C)(C)C(=O)C=C[C@]2(C)[C@H]2CC[C@@]3(C)[C@H](c4ccoc4)OC(=O)[C@H]4O[C@]43[C@@]21C
REMARK SMILES IDX 4 1 5 2 32 3 33 4 31 5 34 6 20 7 29 8 17 9 19 10 22 11 28 12
REMARK SMILES IDX 30 13 15 14 18 15 6 16 7 17 14 18 8 19 13 20 11 21 12 22
REMARK SMILES IDX 35 23 21 24 16 25 9 26 10 27 23 28 24 29 27 30 25 31 26 32
REMARK SMILES IDX 2 33 3 34 1 35
REMARK H PARENT
ROOT
ATOM      1  O   UNL     1      20.456 -26.351 -26.953  1.00  0.00    -0.462 OA
ENDROOT
BRANCH   1   2
ATOM      2  C   UNL     1      20.452 -26.257 -25.523  1.00  0.00     0.186 C 
ATOM      3  O   UNL     1      22.230 -28.897 -24.773  1.00  0.00    -0.352 OA
ATOM      4  C   UNL     1      22.556 -27.748 -25.606  1.00  0.00     0.125 C 
ATOM      5  C   UNL     1      21.770 -28.958 -26.110  1.00  0.00     0.262 C 
ATOM      6  C   UNL     1      21.904 -26.442 -24.992  1.00  0.00     0.041 C 
ATOM      7  C   UNL     1      24.026 -27.712 -26.072  1.00  0.00     0.042 C 
ATOM      8  C   UNL     1      22.437 -30.026 -26.888  1.00  0.00     0.339 C 
ATOM      9  C   UNL     1      22.751 -25.177 -25.398  1.00  0.00     0.012 C 
ATOM     10  C   UNL     1      24.797 -26.770 -25.127  1.00  0.00     0.014 C 
ATOM     11  C   UNL     1      24.590 -29.183 -25.983  1.00  0.00     0.219 C 
ATOM     12  O   UNL     1      23.801 -30.084 -26.825  1.00  0.00    -0.455 OA
ATOM     13  O   UNL     1      21.777 -30.808 -27.560  1.00  0.00    -0.249 OA
ATOM     14  C   UNL     1      22.125 -23.760 -25.022  1.00  0.00    -0.007 C 
ATOM     15  C   UNL     1      24.254 -25.338 -25.059  1.00  0.00     0.006 C 
ATOM     16  C   UNL     1      19.824 -24.904 -25.144  1.00  0.00     0.051 C 
ATOM     17  C   UNL     1      20.681 -23.719 -25.640  1.00  0.00     0.016 C 
ATOM     18  C   UNL     1      22.918 -22.634 -25.673  1.00  0.00    -0.016 C 
ATOM     19  C   UNL     1      19.973 -22.324 -25.603  1.00  0.00     0.031 C 
ATOM     20  C   UNL     1      22.389 -21.513 -26.177  1.00  0.00     0.044 C 
ATOM     21  C   UNL     1      20.933 -21.242 -26.123  1.00  0.00     0.161 C 
ATOM     22  O   UNL     1      20.537 -20.128 -26.472  1.00  0.00    -0.294 OA
ATOM     23  C   UNL     1      21.842 -26.613 -23.446  1.00  0.00     0.019 C 
ATOM     24  C   UNL     1      24.135 -27.244 -27.547  1.00  0.00     0.019 C 
ATOM     25  C   UNL     1      22.166 -23.460 -23.506  1.00  0.00     0.016 C 
ATOM     26  C   UNL     1      18.756 -22.335 -26.564  1.00  0.00     0.020 C 
ATOM     27  C   UNL     1      19.464 -21.888 -24.222  1.00  0.00     0.020 C 
BRANCH  11  28
ATOM     28  C   UNL     1      26.020 -29.301 -26.364  1.00  0.00     0.031 A 
ATOM     29  C   UNL     1      27.135 -29.072 -25.533  1.00  0.00     0.049 A 
ATOM     30  C   UNL     1      26.508 -29.652 -27.594  1.00  0.00     0.202 A 
ATOM     31  C   UNL     1      28.240 -29.303 -26.319  1.00  0.00     0.195 A 
ATOM     32  O   UNL     1      27.866 -29.657 -27.577  1.00  0.00    -0.472 OA
ENDBRANCH  11  28
ENDBRANCH   1   2
BRANCH   1  33
ATOM     33  C   UNL     1      19.252 -26.635 -27.522  1.00  0.00     0.302 C 
ATOM     34  O   UNL     1      18.500 -27.551 -27.218  1.00  0.00    -0.253 OA
ATOM     35  C   UNL     1      18.965 -25.640 -28.606  1.00  0.00     0.139 C 
ENDBRANCH   1  33
TORSDOF 3
ENDMDL
MODEL 7
REMARK VINA RESULT:    -6.599      3.289      9.424
REMARK INTER + INTRA:          -7.921
REMARK INTER:                  -7.368
REMARK INTRA:                  -0.553
REMARK UNBOUND:                -0.164
REMARK SMILES CC(=O)O[C@@H]1C[C@H]2C(C)(C)C(=O)C=C[C@]2(C)[C@H]2CC[C@@]3(C)[C@H](c4ccoc4)OC(=O)[C@H]4O[C@]43[C@@]21C
REMARK SMILES IDX 4 1 5 2 32 3 33 4 31 5 34 6 20 7 29 8 17 9 19 10 22 11 28 12
REMARK SMILES IDX 30 13 15 14 18 15 6 16 7 17 14 18 8 19 13 20 11 21 12 22
REMARK SMILES IDX 35 23 21 24 16 25 9 26 10 27 23 28 24 29 27 30 25 31 26 32
REMARK SMILES IDX 2 33 3 34 1 35
REMARK H PARENT
ROOT
ATOM      1  O   UNL     1      20.564 -24.456 -27.003  1.00  0.00    -0.462 OA
ENDROOT
BRANCH   1   2
ATOM      2  C   UNL     1      19.934 -24.854 -25.779  1.00  0.00     0.186 C 
ATOM      3  O   UNL     1      20.703 -28.032 -25.751  1.00  0.00    -0.352 OA
ATOM      4  C   UNL     1      21.560 -26.856 -25.813  1.00  0.00     0.125 C 
ATOM      5  C   UNL     1      20.890 -27.476 -27.039  1.00  0.00     0.262 C 
ATOM      6  C   UNL     1      20.937 -25.696 -24.936  1.00  0.00     0.041 C 
ATOM      7  C   UNL     1      23.064 -27.175 -25.688  1.00  0.00     0.042 C 
ATOM      8  C   UNL     1      21.642 -28.379 -27.939  1.00  0.00     0.339 C 
ATOM      9  C   UNL     1      22.078 -24.742 -24.417  1.00  0.00     0.012 C 
ATOM     10  C   UNL     1      23.477 -26.933 -24.223  1.00  0.00     0.014 C 
ATOM     11  C   UNL     1      23.266 -28.687 -26.088  1.00  0.00     0.219 C 
ATOM     12  O   UNL     1      22.799 -28.921 -27.455  1.00  0.00    -0.455 OA
ATOM     13  O   UNL     1      21.232 -28.611 -29.069  1.00  0.00    -0.249 OA
ATOM     14  C   UNL     1      21.603 -23.412 -23.678  1.00  0.00    -0.007 C 
ATOM     15  C   UNL     1      23.215 -25.515 -23.704  1.00  0.00     0.006 C 
ATOM     16  C   UNL     1      19.445 -23.580 -25.068  1.00  0.00     0.051 C 
ATOM     17  C   UNL     1      20.623 -22.670 -24.656  1.00  0.00     0.016 C 
ATOM     18  C   UNL     1      22.784 -22.478 -23.443  1.00  0.00    -0.016 C 
ATOM     19  C   UNL     1      20.224 -21.216 -24.236  1.00  0.00     0.031 C 
ATOM     20  C   UNL     1      22.739 -21.144 -23.532  1.00  0.00     0.044 C 
ATOM     21  C   UNL     1      21.485 -20.423 -23.855  1.00  0.00     0.161 C 
ATOM     22  O   UNL     1      21.486 -19.193 -23.775  1.00  0.00    -0.294 OA
ATOM     23  C   UNL     1      20.157 -26.345 -23.755  1.00  0.00     0.019 C 
ATOM     24  C   UNL     1      23.903 -26.305 -26.660  1.00  0.00     0.019 C 
ATOM     25  C   UNL     1      21.009 -23.674 -22.275  1.00  0.00     0.016 C 
ATOM     26  C   UNL     1      19.588 -20.483 -25.444  1.00  0.00     0.020 C 
ATOM     27  C   UNL     1      19.232 -21.125 -23.067  1.00  0.00     0.020 C 
BRANCH  11  28
ATOM     28  C   UNL     1      24.671 -29.154 -25.975  1.00  0.00     0.031 A 
ATOM     29  C   UNL     1      25.563 -29.408 -27.036  1.00  0.00     0.049 A 
ATOM     30  C   UNL     1      25.349 -29.422 -24.816  1.00  0.00     0.202 A 
ATOM     31  C   UNL     1      26.737 -29.817 -26.448  1.00  0.00     0.195 A 
ATOM     32  O   UNL     1      26.615 -29.828 -25.094  1.00  0.00    -0.472 OA
ENDBRANCH  11  28
ENDBRANCH   1   2
BRANCH   1  33
ATOM     33  C   UNL     1      19.762 -23.798 -27.885  1.00  0.00     0.302 C 
ATOM     34  O   UNL     1      18.622 -24.108 -28.204  1.00  0.00    -0.253 OA
ATOM     35  C   UNL     1      20.490 -22.606 -28.429  1.00  0.00     0.139 C 
ENDBRANCH   1  33
TORSDOF 3
ENDMDL
MODEL 8
REMARK VINA RESULT:    -6.356      5.782     10.666
REMARK INTER + INTRA:          -7.635
REMARK INTER:                  -7.114
REMARK INTRA:                  -0.520
REMARK UNBOUND:                -0.164
REMARK SMILES CC(=O)O[C@@H]1C[C@H]2C(C)(C)C(=O)C=C[C@]2(C)[C@H]2CC[C@@]3(C)[C@H](c4ccoc4)OC(=O)[C@H]4O[C@]43[C@@]21C
REMARK SMILES IDX 4 1 5 2 32 3 33 4 31 5 34 6 20 7 29 8 17 9 19 10 22 11 28 12
REMARK SMILES IDX 30 13 15 14 18 15 6 16 7 17 14 18 8 19 13 20 11 21 12 22
REMARK SMILES IDX 35 23 21 24 16 25 9 26 10 27 23 28 24 29 27 30 25 31 26 32
REMARK SMILES IDX 2 33 3 34 1 35
REMARK H PARENT
ROOT
ATOM      1  O   UNL     1      22.344 -23.324 -22.739  1.00  0.00    -0.462 OA
ENDROOT
BRANCH   1   2
ATOM      2  C   UNL     1      22.932 -22.872 -23.965  1.00  0.00     0.186 C 
ATOM      3  O   UNL     1      23.806 -25.740 -25.269  1.00  0.00    -0.352 OA
ATOM      4  C   UNL     1      22.501 -25.262 -24.835  1.00  0.00     0.125 C 
ATOM      5  C   UNL     1      23.533 -25.873 -23.887  1.00  0.00     0.262 C 
ATOM      6  C   UNL     1      22.369 -23.716 -25.147  1.00  0.00     0.041 C 
ATOM      7  C   UNL     1      21.339 -26.208 -25.197  1.00  0.00     0.042 C 
ATOM      8  C   UNL     1      23.431 -27.289 -23.466  1.00  0.00     0.339 C 
ATOM      9  C   UNL     1      20.854 -23.337 -25.356  1.00  0.00     0.012 C 
ATOM     10  C   UNL     1      20.684 -25.679 -26.488  1.00  0.00     0.014 C 
ATOM     11  C   UNL     1      21.947 -27.646 -25.423  1.00  0.00     0.219 C 
ATOM     12  O   UNL     1      22.633 -28.107 -24.215  1.00  0.00    -0.455 OA
ATOM     13  O   UNL     1      24.038 -27.688 -22.480  1.00  0.00    -0.249 OA
ATOM     14  C   UNL     1      20.529 -21.782 -25.488  1.00  0.00    -0.007 C 
ATOM     15  C   UNL     1      20.158 -24.242 -26.401  1.00  0.00     0.006 C 
ATOM     16  C   UNL     1      22.650 -21.365 -24.092  1.00  0.00     0.051 C 
ATOM     17  C   UNL     1      21.137 -21.077 -24.223  1.00  0.00     0.016 C 
ATOM     18  C   UNL     1      19.024 -21.543 -25.446  1.00  0.00    -0.016 C 
ATOM     19  C   UNL     1      20.725 -19.581 -24.021  1.00  0.00     0.031 C 
ATOM     20  C   UNL     1      18.427 -20.506 -24.851  1.00  0.00     0.044 C 
ATOM     21  C   UNL     1      19.202 -19.439 -24.173  1.00  0.00     0.161 C 
ATOM     22  O   UNL     1      18.593 -18.443 -23.777  1.00  0.00    -0.294 OA
ATOM     23  C   UNL     1      23.214 -23.403 -26.416  1.00  0.00     0.019 C 
ATOM     24  C   UNL     1      20.310 -26.300 -24.040  1.00  0.00     0.019 C 
ATOM     25  C   UNL     1      20.998 -21.174 -26.829  1.00  0.00     0.016 C 
ATOM     26  C   UNL     1      21.068 -19.139 -22.575  1.00  0.00     0.020 C 
ATOM     27  C   UNL     1      21.396 -18.586 -24.978  1.00  0.00     0.020 C 
BRANCH  11  28
ATOM     28  C   UNL     1      20.944 -28.665 -25.823  1.00  0.00     0.031 A 
ATOM     29  C   UNL     1      20.472 -28.917 -27.126  1.00  0.00     0.049 A 
ATOM     30  C   UNL     1      20.300 -29.542 -24.992  1.00  0.00     0.202 A 
ATOM     31  C   UNL     1      19.562 -29.941 -27.003  1.00  0.00     0.195 A 
ATOM     32  O   UNL     1      19.451 -30.328 -25.705  1.00  0.00    -0.472 OA
ENDBRANCH  11  28
ENDBRANCH   1   2
BRANCH   1  33
ATOM     33  C   UNL     1      22.876 -22.791 -21.605  1.00  0.00     0.302 C 
ATOM     34  O   UNL     1      24.044 -22.858 -21.247  1.00  0.00    -0.253 OA
ATOM     35  C   UNL     1      21.801 -22.088 -20.831  1.00  0.00     0.139 C 
ENDBRANCH   1  33
TORSDOF 3
ENDMDL
MODEL 9
REMARK VINA RESULT:    -6.258      3.840      7.150
REMARK INTER + INTRA:          -7.520
REMARK INTER:                  -7.463
REMARK INTRA:                  -0.057
REMARK UNBOUND:                -0.164
REMARK SMILES CC(=O)O[C@@H]1C[C@H]2C(C)(C)C(=O)C=C[C@]2(C)[C@H]2CC[C@@]3(C)[C@H](c4ccoc4)OC(=O)[C@H]4O[C@]43[C@@]21C
REMARK SMILES IDX 4 1 5 2 32 3 33 4 31 5 34 6 20 7 29 8 17 9 19 10 22 11 28 12
REMARK SMILES IDX 30 13 15 14 18 15 6 16 7 17 14 18 8 19 13 20 11 21 12 22
REMARK SMILES IDX 35 23 21 24 16 25 9 26 10 27 23 28 24 29 27 30 25 31 26 32
REMARK SMILES IDX 2 33 3 34 1 35
REMARK H PARENT
ROOT
ATOM      1  O   UNL     1      23.364 -25.434 -24.629  1.00  0.00    -0.462 OA
ENDROOT
BRANCH   1   2
ATOM      2  C   UNL     1      22.831 -26.449 -25.488  1.00  0.00     0.186 C 
ATOM      3  O   UNL     1      19.852 -25.220 -26.041  1.00  0.00    -0.352 OA
ATOM      4  C   UNL     1      21.168 -24.642 -26.278  1.00  0.00     0.125 C 
ATOM      5  C   UNL     1      20.459 -24.597 -24.924  1.00  0.00     0.262 C 
ATOM      6  C   UNL     1      22.174 -25.778 -26.730  1.00  0.00     0.041 C 
ATOM      7  C   UNL     1      21.133 -23.310 -27.053  1.00  0.00     0.042 C 
ATOM      8  C   UNL     1      19.730 -23.383 -24.491  1.00  0.00     0.339 C 
ATOM      9  C   UNL     1      23.313 -25.160 -27.626  1.00  0.00     0.012 C 
ATOM     10  C   UNL     1      21.417 -23.620 -28.536  1.00  0.00     0.014 C 
ATOM     11  C   UNL     1      19.693 -22.691 -26.874  1.00  0.00     0.219 C 
ATOM     12  O   UNL     1      19.404 -22.473 -25.456  1.00  0.00    -0.455 OA
ATOM     13  O   UNL     1      19.449 -23.217 -23.310  1.00  0.00    -0.249 OA
ATOM     14  C   UNL     1      24.516 -26.134 -28.006  1.00  0.00    -0.007 C 
ATOM     15  C   UNL     1      22.751 -24.325 -28.803  1.00  0.00     0.006 C 
ATOM     16  C   UNL     1      23.976 -27.414 -25.840  1.00  0.00     0.051 C 
ATOM     17  C   UNL     1      25.082 -26.711 -26.659  1.00  0.00     0.016 C 
ATOM     18  C   UNL     1      25.649 -25.356 -28.664  1.00  0.00    -0.016 C 
ATOM     19  C   UNL     1      26.427 -27.502 -26.776  1.00  0.00     0.031 C 
ATOM     20  C   UNL     1      26.952 -25.593 -28.481  1.00  0.00     0.044 C 
ATOM     21  C   UNL     1      27.433 -26.691 -27.609  1.00  0.00     0.161 C 
ATOM     22  O   UNL     1      28.640 -26.941 -27.605  1.00  0.00    -0.294 OA
ATOM     23  C   UNL     1      21.367 -26.862 -27.502  1.00  0.00     0.019 C 
ATOM     24  C   UNL     1      22.163 -22.301 -26.481  1.00  0.00     0.019 C 
ATOM     25  C   UNL     1      24.120 -27.219 -29.034  1.00  0.00     0.016 C 
ATOM     26  C   UNL     1      27.053 -27.673 -25.369  1.00  0.00     0.020 C 
ATOM     27  C   UNL     1      26.308 -28.900 -27.400  1.00  0.00     0.020 C 
BRANCH  11  28
ATOM     28  C   UNL     1      19.494 -21.414 -27.605  1.00  0.00     0.031 A 
ATOM     29  C   UNL     1      18.699 -21.215 -28.752  1.00  0.00     0.049 A 
ATOM     30  C   UNL     1      20.049 -20.203 -27.293  1.00  0.00     0.202 A 
ATOM     31  C   UNL     1      18.824 -19.882 -29.066  1.00  0.00     0.195 A 
ATOM     32  O   UNL     1      19.645 -19.257 -28.182  1.00  0.00    -0.472 OA
ENDBRANCH  11  28
ENDBRANCH   1   2
BRANCH   1  33
ATOM     33  C   UNL     1      23.169 -25.636 -23.296  1.00  0.00     0.302 C 
ATOM     34  O   UNL     1      23.301 -26.692 -22.693  1.00  0.00    -0.253 OA
ATOM     35  C   UNL     1      22.758 -24.347 -22.650  1.00  0.00     0.139 C 
ENDBRANCH   1  33
TORSDOF 3
ENDMDL
