MODEL 1
REMARK VINA RESULT:    -4.400      0.000      0.000
REMARK INTER + INTRA:          -5.984
REMARK INTER:                  -5.429
REMARK INTRA:                  -0.555
REMARK UNBOUND:                -0.555
REMARK SMILES COC(=O)C[C@H]1[C@]2(C)C3=C(C)[C@H](c4ccoc4)C[C@H]3O[C@@H]2[C@@H]2OC(=O)[C@]3(C)C=CC(=O)[C@@]1(C)[C@@H]23
REMARK SMILES IDX 4 1 3 2 5 3 6 4 20 5 21 6 19 7 7 8 22 9 9 10 18 11 23 12
REMARK SMILES IDX 34 13 10 14 12 15 32 16 24 17 26 18 30 19 25 20 28 21 31 22
REMARK SMILES IDX 29 23 8 24 11 25 33 26 27 27 13 28 14 29 17 30 15 31 16 32
REMARK SMILES IDX 2 33 1 34
REMARK H PARENT
ROOT
ATOM      1  O   UNL     1      18.921  52.559  47.773  1.00  0.00    -0.252 OA
ATOM      2  C   UNL     1      18.221  51.683  47.282  1.00  0.00     0.305 C 
ENDROOT
BRANCH   2   3
ATOM      3  C   UNL     1      17.141  51.885  46.258  1.00  0.00     0.128 C 
BRANCH   3   4
ATOM      4  C   UNL     1      16.392  53.213  46.489  1.00  0.00     0.027 C 
ATOM      5  O   UNL     1      16.530  56.419  46.401  1.00  0.00    -0.366 OA
ATOM      6  C   UNL     1      15.867  55.585  45.417  1.00  0.00     0.170 C 
ATOM      7  C   UNL     1      17.875  55.965  46.508  1.00  0.00     0.146 C 
ATOM      8  C   UNL     1      16.672  54.246  45.303  1.00  0.00     0.025 C 
ATOM      9  C   UNL     1      14.410  55.354  45.783  1.00  0.00     0.212 C 
ATOM     10  C   UNL     1      18.016  54.880  45.495  1.00  0.00    -0.033 C 
ATOM     11  C   UNL     1      18.946  56.952  46.076  1.00  0.00     0.049 C 
ATOM     12  O   UNL     1      13.729  56.537  46.243  1.00  0.00    -0.459 OA
ATOM     13  C   UNL     1      14.318  54.469  46.983  1.00  0.00     0.068 C 
ATOM     14  C   UNL     1      19.221  54.887  44.910  1.00  0.00    -0.063 C 
ATOM     15  C   UNL     1      20.028  56.075  45.403  1.00  0.00     0.051 C 
ATOM     16  C   UNL     1      14.869  53.050  46.888  1.00  0.00     0.042 C 
ATOM     17  C   UNL     1      12.889  56.198  47.299  1.00  0.00     0.316 C 
ATOM     18  C   UNL     1      12.898  54.680  47.468  1.00  0.00     0.091 C 
ATOM     19  C   UNL     1      14.692  52.497  48.334  1.00  0.00     0.162 C 
ATOM     20  O   UNL     1      12.228  56.999  47.940  1.00  0.00    -0.251 OA
ATOM     21  C   UNL     1      12.852  54.115  48.854  1.00  0.00    -0.005 C 
ATOM     22  O   UNL     1      15.334  51.535  48.759  1.00  0.00    -0.294 OA
ATOM     23  C   UNL     1      13.663  53.117  49.248  1.00  0.00     0.044 C 
ATOM     24  C   UNL     1      16.439  53.655  43.904  1.00  0.00     0.019 C 
ATOM     25  C   UNL     1      19.762  54.018  43.830  1.00  0.00     0.040 C 
ATOM     26  C   UNL     1      14.093  52.117  45.951  1.00  0.00     0.021 C 
ATOM     27  C   UNL     1      11.723  54.141  46.644  1.00  0.00     0.029 C 
BRANCH  15  28
ATOM     28  C   UNL     1      21.092  55.663  46.345  1.00  0.00    -0.002 A 
ATOM     29  C   UNL     1      22.346  56.286  46.532  1.00  0.00     0.046 A 
ATOM     30  C   UNL     1      21.053  54.598  47.209  1.00  0.00     0.199 A 
ATOM     31  C   UNL     1      22.989  55.555  47.503  1.00  0.00     0.195 A 
ATOM     32  O   UNL     1      22.208  54.524  47.921  1.00  0.00    -0.472 OA
ENDBRANCH  15  28
ENDBRANCH   3   4
ENDBRANCH   2   3
BRANCH   2  33
ATOM     33  O   UNL     1      18.289  50.350  47.570  1.00  0.00    -0.469 OA
ATOM     34  C   UNL     1      17.287  49.534  46.955  1.00  0.00     0.282 C 
ENDBRANCH   2  33
TORSDOF 4
ENDMDL
MODEL 2
REMARK VINA RESULT:    -4.047      2.920      6.911
REMARK INTER + INTRA:          -5.548
REMARK INTER:                  -5.112
REMARK INTRA:                  -0.436
REMARK UNBOUND:                -0.555
REMARK SMILES COC(=O)C[C@H]1[C@]2(C)C3=C(C)[C@H](c4ccoc4)C[C@H]3O[C@@H]2[C@@H]2OC(=O)[C@]3(C)C=CC(=O)[C@@]1(C)[C@@H]23
REMARK SMILES IDX 4 1 3 2 5 3 6 4 20 5 21 6 19 7 7 8 22 9 9 10 18 11 23 12
REMARK SMILES IDX 34 13 10 14 12 15 32 16 24 17 26 18 30 19 25 20 28 21 31 22
REMARK SMILES IDX 29 23 8 24 11 25 33 26 27 27 13 28 14 29 17 30 15 31 16 32
REMARK SMILES IDX 2 33 1 34
REMARK H PARENT
ROOT
ATOM      1  O   UNL     1      13.759  50.973  48.939  1.00  0.00    -0.252 OA
ATOM      2  C   UNL     1      13.733  52.177  48.725  1.00  0.00     0.305 C 
ENDROOT
BRANCH   2   3
ATOM      3  C   UNL     1      14.929  53.069  48.552  1.00  0.00     0.128 C 
BRANCH   3   4
ATOM      4  C   UNL     1      14.926  53.747  47.168  1.00  0.00     0.027 C 
ATOM      5  O   UNL     1      13.717  56.085  45.330  1.00  0.00    -0.366 OA
ATOM      6  C   UNL     1      15.033  56.098  45.938  1.00  0.00     0.170 C 
ATOM      7  C   UNL     1      12.769  55.864  46.368  1.00  0.00     0.146 C 
ATOM      8  C   UNL     1      14.937  55.339  47.305  1.00  0.00     0.025 C 
ATOM      9  C   UNL     1      16.074  55.492  45.012  1.00  0.00     0.212 C 
ATOM     10  C   UNL     1      13.559  55.825  47.633  1.00  0.00    -0.033 C 
ATOM     11  C   UNL     1      11.794  57.000  46.632  1.00  0.00     0.049 C 
ATOM     12  O   UNL     1      15.953  55.917  43.640  1.00  0.00    -0.459 OA
ATOM     13  C   UNL     1      15.855  54.019  44.890  1.00  0.00     0.068 C 
ATOM     14  C   UNL     1      12.907  56.395  48.655  1.00  0.00    -0.063 C 
ATOM     15  C   UNL     1      11.599  56.992  48.167  1.00  0.00     0.051 C 
ATOM     16  C   UNL     1      15.977  53.157  46.142  1.00  0.00     0.042 C 
ATOM     17  C   UNL     1      16.199  54.832  42.804  1.00  0.00     0.316 C 
ATOM     18  C   UNL     1      16.648  53.647  43.654  1.00  0.00     0.091 C 
ATOM     19  C   UNL     1      15.582  51.735  45.641  1.00  0.00     0.162 C 
ATOM     20  O   UNL     1      16.108  54.864  41.587  1.00  0.00    -0.251 OA
ATOM     21  C   UNL     1      16.185  52.275  43.270  1.00  0.00    -0.005 C 
ATOM     22  O   UNL     1      15.206  50.845  46.404  1.00  0.00    -0.294 OA
ATOM     23  C   UNL     1      15.705  51.402  44.174  1.00  0.00     0.044 C 
ATOM     24  C   UNL     1      16.040  55.868  48.235  1.00  0.00     0.019 C 
ATOM     25  C   UNL     1      13.338  56.605  50.063  1.00  0.00     0.040 C 
ATOM     26  C   UNL     1      17.394  53.054  46.718  1.00  0.00     0.021 C 
ATOM     27  C   UNL     1      18.180  53.689  43.690  1.00  0.00     0.029 C 
BRANCH  15  28
ATOM     28  C   UNL     1      10.434  56.181  48.586  1.00  0.00    -0.002 A 
ATOM     29  C   UNL     1       9.445  55.623  47.747  1.00  0.00     0.046 A 
ATOM     30  C   UNL     1      10.103  55.826  49.869  1.00  0.00     0.199 A 
ATOM     31  C   UNL     1       8.574  54.961  48.580  1.00  0.00     0.195 A 
ATOM     32  O   UNL     1       8.967  55.081  49.875  1.00  0.00    -0.472 OA
ENDBRANCH  15  28
ENDBRANCH   3   4
ENDBRANCH   2   3
BRANCH   2  33
ATOM     33  O   UNL     1      12.610  52.944  48.599  1.00  0.00    -0.469 OA
ATOM     34  C   UNL     1      11.643  52.473  47.655  1.00  0.00     0.282 C 
ENDBRANCH   2  33
TORSDOF 4
ENDMDL
MODEL 3
REMARK VINA RESULT:    -3.700      1.875      6.625
REMARK INTER + INTRA:          -5.120
REMARK INTER:                  -8.932
REMARK INTRA:                   3.811
REMARK UNBOUND:                -0.555
REMARK SMILES COC(=O)C[C@H]1[C@]2(C)C3=C(C)[C@H](c4ccoc4)C[C@H]3O[C@@H]2[C@@H]2OC(=O)[C@]3(C)C=CC(=O)[C@@]1(C)[C@@H]23
REMARK SMILES IDX 4 1 3 2 5 3 6 4 20 5 21 6 19 7 7 8 22 9 9 10 18 11 23 12
REMARK SMILES IDX 34 13 10 14 12 15 32 16 24 17 26 18 30 19 25 20 28 21 31 22
REMARK SMILES IDX 29 23 8 24 11 25 33 26 27 27 13 28 14 29 17 30 15 31 16 32
REMARK SMILES IDX 2 33 1 34
REMARK H PARENT
ROOT
ATOM      1  O   UNL     1      14.499  50.714  47.661  1.00  0.00    -0.252 OA
ATOM      2  C   UNL     1      15.214  50.647  46.670  1.00  0.00     0.305 C 
ENDROOT
BRANCH   2   3
ATOM      3  C   UNL     1      15.236  51.621  45.528  1.00  0.00     0.128 C 
BRANCH   3   4
ATOM      4  C   UNL     1      16.204  52.789  45.807  1.00  0.00     0.027 C 
ATOM      5  O   UNL     1      16.586  55.705  47.093  1.00  0.00    -0.366 OA
ATOM      6  C   UNL     1      17.046  54.465  47.686  1.00  0.00     0.170 C 
ATOM      7  C   UNL     1      15.194  55.563  46.833  1.00  0.00     0.146 C 
ATOM      8  C   UNL     1      16.028  53.340  47.296  1.00  0.00     0.025 C 
ATOM      9  C   UNL     1      18.464  54.138  47.249  1.00  0.00     0.212 C 
ATOM     10  C   UNL     1      14.819  54.222  47.366  1.00  0.00    -0.033 C 
ATOM     11  C   UNL     1      14.275  56.489  47.612  1.00  0.00     0.049 C 
ATOM     12  O   UNL     1      19.355  55.270  47.261  1.00  0.00    -0.459 OA
ATOM     13  C   UNL     1      18.480  53.760  45.804  1.00  0.00     0.068 C 
ATOM     14  C   UNL     1      13.600  54.220  47.921  1.00  0.00    -0.063 C 
ATOM     15  C   UNL     1      13.026  55.626  47.916  1.00  0.00     0.051 C 
ATOM     16  C   UNL     1      17.700  52.525  45.363  1.00  0.00     0.042 C 
ATOM     17  C   UNL     1      20.188  55.207  46.149  1.00  0.00     0.316 C 
ATOM     18  C   UNL     1      19.941  53.887  45.423  1.00  0.00     0.091 C 
ATOM     19  C   UNL     1      17.868  52.526  43.814  1.00  0.00     0.162 C 
ATOM     20  O   UNL     1      21.007  56.062  45.851  1.00  0.00    -0.251 OA
ATOM     21  C   UNL     1      19.974  53.878  43.926  1.00  0.00    -0.005 C 
ATOM     22  O   UNL     1      17.104  51.918  43.065  1.00  0.00    -0.294 OA
ATOM     23  C   UNL     1      19.036  53.253  43.192  1.00  0.00     0.044 C 
ATOM     24  C   UNL     1      16.080  52.242  48.369  1.00  0.00     0.019 C 
ATOM     25  C   UNL     1      12.862  53.120  48.599  1.00  0.00     0.040 C 
ATOM     26  C   UNL     1      18.258  51.192  45.877  1.00  0.00     0.021 C 
ATOM     27  C   UNL     1      20.963  52.886  45.975  1.00  0.00     0.029 C 
BRANCH  15  28
ATOM     28  C   UNL     1      11.966  55.784  46.896  1.00  0.00    -0.002 A 
ATOM     29  C   UNL     1      11.651  56.957  46.176  1.00  0.00     0.046 A 
ATOM     30  C   UNL     1      11.094  54.816  46.464  1.00  0.00     0.199 A 
ATOM     31  C   UNL     1      10.604  56.624  45.350  1.00  0.00     0.195 A 
ATOM     32  O   UNL     1      10.258  55.320  45.520  1.00  0.00    -0.472 OA
ENDBRANCH  15  28
ENDBRANCH   3   4
ENDBRANCH   2   3
BRANCH   2  33
ATOM     33  O   UNL     1      16.134  49.670  46.413  1.00  0.00    -0.469 OA
ATOM     34  C   UNL     1      16.362  48.741  47.477  1.00  0.00     0.282 C 
ENDBRANCH   2  33
TORSDOF 4
ENDMDL
MODEL 4
REMARK VINA RESULT:    -3.621     13.370     17.186
REMARK INTER + INTRA:          -5.023
REMARK INTER:                  -4.307
REMARK INTRA:                  -0.716
REMARK UNBOUND:                -0.555
REMARK SMILES COC(=O)C[C@H]1[C@]2(C)C3=C(C)[C@H](c4ccoc4)C[C@H]3O[C@@H]2[C@@H]2OC(=O)[C@]3(C)C=CC(=O)[C@@]1(C)[C@@H]23
REMARK SMILES IDX 4 1 3 2 5 3 6 4 20 5 21 6 19 7 7 8 22 9 9 10 18 11 23 12
REMARK SMILES IDX 34 13 10 14 12 15 32 16 24 17 26 18 30 19 25 20 28 21 31 22
REMARK SMILES IDX 29 23 8 24 11 25 33 26 27 27 13 28 14 29 17 30 15 31 16 32
REMARK SMILES IDX 2 33 1 34
REMARK H PARENT
ROOT
ATOM      1  O   UNL     1      11.616  49.923  63.911  1.00  0.00    -0.252 OA
ATOM      2  C   UNL     1      10.995  50.852  64.411  1.00  0.00     0.305 C 
ENDROOT
BRANCH   2   3
ATOM      3  C   UNL     1      10.124  51.830  63.676  1.00  0.00     0.128 C 
BRANCH   3   4
ATOM      4  C   UNL     1      10.688  52.138  62.274  1.00  0.00     0.027 C 
ATOM      5  O   UNL     1      11.202  51.058  59.295  1.00  0.00    -0.366 OA
ATOM      6  C   UNL     1      10.157  51.988  59.677  1.00  0.00     0.170 C 
ATOM      7  C   UNL     1      11.070  49.905  60.120  1.00  0.00     0.146 C 
ATOM      8  C   UNL     1       9.699  51.624  61.130  1.00  0.00     0.025 C 
ATOM      9  C   UNL     1      10.632  53.427  59.564  1.00  0.00     0.212 C 
ATOM     10  C   UNL     1       9.858  50.144  60.955  1.00  0.00    -0.033 C 
ATOM     11  C   UNL     1      10.718  48.612  59.403  1.00  0.00     0.049 C 
ATOM     12  O   UNL     1      11.384  53.702  58.366  1.00  0.00    -0.459 OA
ATOM     13  C   UNL     1      11.643  53.717  60.625  1.00  0.00     0.068 C 
ATOM     14  C   UNL     1       9.154  49.023  61.159  1.00  0.00    -0.063 C 
ATOM     15  C   UNL     1       9.772  47.875  60.381  1.00  0.00     0.051 C 
ATOM     16  C   UNL     1      11.217  53.618  62.087  1.00  0.00     0.042 C 
ATOM     17  C   UNL     1      12.443  54.549  58.677  1.00  0.00     0.316 C 
ATOM     18  C   UNL     1      12.315  54.983  60.135  1.00  0.00     0.091 C 
ATOM     19  C   UNL     1      12.540  53.878  62.867  1.00  0.00     0.162 C 
ATOM     20  O   UNL     1      13.295  54.909  57.881  1.00  0.00    -0.251 OA
ATOM     21  C   UNL     1      13.563  55.125  60.950  1.00  0.00    -0.005 C 
ATOM     22  O   UNL     1      12.697  53.530  64.038  1.00  0.00    -0.294 OA
ATOM     23  C   UNL     1      13.665  54.628  62.196  1.00  0.00     0.044 C 
ATOM     24  C   UNL     1       8.247  52.093  61.315  1.00  0.00     0.019 C 
ATOM     25  C   UNL     1       7.874  48.820  61.890  1.00  0.00     0.040 C 
ATOM     26  C   UNL     1      10.210  54.683  62.538  1.00  0.00     0.021 C 
ATOM     27  C   UNL     1      11.540  56.306  60.132  1.00  0.00     0.029 C 
BRANCH  15  28
ATOM     28  C   UNL     1      10.493  46.935  61.268  1.00  0.00    -0.002 A 
ATOM     29  C   UNL     1      10.127  45.605  61.568  1.00  0.00     0.046 A 
ATOM     30  C   UNL     1      11.649  47.188  61.962  1.00  0.00     0.199 A 
ATOM     31  C   UNL     1      11.091  45.134  62.429  1.00  0.00     0.195 A 
ATOM     32  O   UNL     1      12.022  46.093  62.674  1.00  0.00    -0.472 OA
ENDBRANCH  15  28
ENDBRANCH   3   4
ENDBRANCH   2   3
BRANCH   2  33
ATOM     33  O   UNL     1      10.973  51.177  65.738  1.00  0.00    -0.469 OA
ATOM     34  C   UNL     1      12.216  51.026  66.431  1.00  0.00     0.282 C 
ENDBRANCH   2  33
TORSDOF 4
ENDMDL
