MODEL 1
REMARK VINA RESULT:    -7.726      0.000      0.000
REMARK INTER + INTRA:         -10.484
REMARK INTER:                  -9.533
REMARK INTRA:                  -0.951
REMARK UNBOUND:                -0.951
REMARK SMILES COC(=O)C[C@H]1[C@]2(C)C3=C(C)[C@H](c4ccoc4)C[C@H]3O[C@@H]2[C@@H]2OC(=O)[C@]3(C)C=CC(=O)[C@@]1(C)[C@@H]23
REMARK SMILES IDX 4 1 3 2 5 3 6 4 20 5 21 6 19 7 7 8 22 9 9 10 18 11 23 12
REMARK SMILES IDX 34 13 10 14 12 15 32 16 24 17 26 18 30 19 25 20 28 21 31 22
REMARK SMILES IDX 29 23 8 24 11 25 33 26 27 27 13 28 14 29 17 30 15 31 16 32
REMARK SMILES IDX 2 33 1 34
REMARK H PARENT
ROOT
ATOM      1  O   UNL     1      24.738 -24.157 -27.144  1.00  0.00    -0.252 OA
ATOM      2  C   UNL     1      23.980 -24.686 -27.945  1.00  0.00     0.305 C 
ENDROOT
BRANCH   2   3
ATOM      3  C   UNL     1      23.937 -26.148 -28.287  1.00  0.00     0.128 C 
BRANCH   3   4
ATOM      4  C   UNL     1      24.727 -26.986 -27.263  1.00  0.00     0.027 C 
ATOM      5  O   UNL     1      25.034 -27.876 -24.194  1.00  0.00    -0.366 OA
ATOM      6  C   UNL     1      24.470 -28.697 -25.248  1.00  0.00     0.170 C 
ATOM      7  C   UNL     1      24.319 -26.646 -24.182  1.00  0.00     0.146 C 
ATOM      8  C   UNL     1      23.743 -27.746 -26.259  1.00  0.00     0.025 C 
ATOM      9  C   UNL     1      25.540 -29.544 -25.918  1.00  0.00     0.212 C 
ATOM     10  C   UNL     1      23.253 -26.790 -25.215  1.00  0.00    -0.033 C 
ATOM     11  C   UNL     1      23.514 -26.357 -22.926  1.00  0.00     0.049 C 
ATOM     12  O   UNL     1      26.461 -30.158 -24.996  1.00  0.00    -0.459 OA
ATOM     13  C   UNL     1      26.453 -28.675 -26.720  1.00  0.00     0.068 C 
ATOM     14  C   UNL     1      22.110 -26.195 -24.850  1.00  0.00    -0.063 C 
ATOM     15  C   UNL     1      22.240 -25.645 -23.441  1.00  0.00     0.051 C 
ATOM     16  C   UNL     1      25.870 -27.885 -27.888  1.00  0.00     0.042 C 
ATOM     17  C   UNL     1      27.744 -30.107 -25.532  1.00  0.00     0.316 C 
ATOM     18  C   UNL     1      27.663 -29.557 -26.954  1.00  0.00     0.091 C 
ATOM     19  C   UNL     1      27.079 -27.041 -28.391  1.00  0.00     0.162 C 
ATOM     20  O   UNL     1      28.749 -30.491 -24.955  1.00  0.00    -0.251 OA
ATOM     21  C   UNL     1      28.749 -28.642 -27.429  1.00  0.00    -0.005 C 
ATOM     22  O   UNL     1      26.939 -26.022 -29.069  1.00  0.00    -0.294 OA
ATOM     23  C   UNL     1      28.485 -27.500 -28.089  1.00  0.00     0.044 C 
ATOM     24  C   UNL     1      22.636 -28.542 -26.967  1.00  0.00     0.019 C 
ATOM     25  C   UNL     1      20.800 -26.132 -25.553  1.00  0.00     0.040 C 
ATOM     26  C   UNL     1      25.393 -28.738 -29.069  1.00  0.00     0.021 C 
ATOM     27  C   UNL     1      27.555 -30.768 -27.887  1.00  0.00     0.029 C 
BRANCH  15  28
ATOM     28  C   UNL     1      22.372 -24.171 -23.436  1.00  0.00    -0.002 A 
ATOM     29  C   UNL     1      22.394 -23.327 -22.305  1.00  0.00     0.046 A 
ATOM     30  C   UNL     1      22.497 -23.357 -24.533  1.00  0.00     0.199 A 
ATOM     31  C   UNL     1      22.532 -22.048 -22.791  1.00  0.00     0.195 A 
ATOM     32  O   UNL     1      22.595 -22.058 -24.148  1.00  0.00    -0.472 OA
ENDBRANCH  15  28
ENDBRANCH   3   4
ENDBRANCH   2   3
BRANCH   2  33
ATOM     33  O   UNL     1      23.023 -24.049 -28.682  1.00  0.00    -0.469 OA
ATOM     34  C   UNL     1      21.790 -24.759 -28.839  1.00  0.00     0.282 C 
ENDBRANCH   2  33
TORSDOF 4
ENDMDL
MODEL 2
REMARK VINA RESULT:    -7.363      2.147      3.714
REMARK INTER + INTRA:         -10.035
REMARK INTER:                  -9.181
REMARK INTRA:                  -0.854
REMARK UNBOUND:                -0.951
REMARK SMILES COC(=O)C[C@H]1[C@]2(C)C3=C(C)[C@H](c4ccoc4)C[C@H]3O[C@@H]2[C@@H]2OC(=O)[C@]3(C)C=CC(=O)[C@@]1(C)[C@@H]23
REMARK SMILES IDX 4 1 3 2 5 3 6 4 20 5 21 6 19 7 7 8 22 9 9 10 18 11 23 12
REMARK SMILES IDX 34 13 10 14 12 15 32 16 24 17 26 18 30 19 25 20 28 21 31 22
REMARK SMILES IDX 29 23 8 24 11 25 33 26 27 27 13 28 14 29 17 30 15 31 16 32
REMARK SMILES IDX 2 33 1 34
REMARK H PARENT
ROOT
ATOM      1  O   UNL     1      22.204 -21.929 -26.819  1.00  0.00    -0.252 OA
ATOM      2  C   UNL     1      21.199 -22.508 -27.210  1.00  0.00     0.305 C 
ENDROOT
BRANCH   2   3
ATOM      3  C   UNL     1      20.993 -23.995 -27.246  1.00  0.00     0.128 C 
BRANCH   3   4
ATOM      4  C   UNL     1      22.006 -24.722 -26.338  1.00  0.00     0.027 C 
ATOM      5  O   UNL     1      23.168 -25.081 -23.367  1.00  0.00    -0.366 OA
ATOM      6  C   UNL     1      22.269 -26.007 -24.029  1.00  0.00     0.170 C 
ATOM      7  C   UNL     1      22.559 -23.796 -23.404  1.00  0.00     0.146 C 
ATOM      8  C   UNL     1      21.327 -25.175 -24.965  1.00  0.00     0.025 C 
ATOM      9  C   UNL     1      23.040 -27.075 -24.788  1.00  0.00     0.212 C 
ATOM     10  C   UNL     1      21.227 -23.999 -24.042  1.00  0.00    -0.033 C 
ATOM     11  C   UNL     1      22.185 -23.198 -22.058  1.00  0.00     0.049 C 
ATOM     12  O   UNL     1      24.159 -27.616 -24.059  1.00  0.00    -0.459 OA
ATOM     13  C   UNL     1      23.717 -26.472 -25.974  1.00  0.00     0.068 C 
ATOM     14  C   UNL     1      20.280 -23.223 -23.497  1.00  0.00    -0.063 C 
ATOM     15  C   UNL     1      20.857 -22.449 -22.325  1.00  0.00     0.051 C 
ATOM     16  C   UNL     1      22.857 -25.842 -27.065  1.00  0.00     0.042 C 
ATOM     17  C   UNL     1      25.223 -27.808 -24.935  1.00  0.00     0.316 C 
ATOM     18  C   UNL     1      24.750 -27.513 -26.356  1.00  0.00     0.091 C 
ATOM     19  C   UNL     1      23.905 -25.243 -28.050  1.00  0.00     0.162 C 
ATOM     20  O   UNL     1      26.331 -28.194 -24.600  1.00  0.00    -0.251 OA
ATOM     21  C   UNL     1      25.693 -26.826 -27.295  1.00  0.00    -0.005 C 
ATOM     22  O   UNL     1      23.625 -24.352 -28.853  1.00  0.00    -0.294 OA
ATOM     23  C   UNL     1      25.309 -25.798 -28.072  1.00  0.00     0.044 C 
ATOM     24  C   UNL     1      20.016 -25.954 -25.153  1.00  0.00     0.019 C 
ATOM     25  C   UNL     1      18.826 -23.137 -23.798  1.00  0.00     0.040 C 
ATOM     26  C   UNL     1      22.001 -26.831 -27.864  1.00  0.00     0.021 C 
ATOM     27  C   UNL     1      24.300 -28.851 -26.954  1.00  0.00     0.029 C 
BRANCH  15  28
ATOM     28  C   UNL     1      21.067 -21.023 -22.657  1.00  0.00    -0.002 A 
ATOM     29  C   UNL     1      20.479 -20.306 -23.723  1.00  0.00     0.046 A 
ATOM     30  C   UNL     1      21.875 -20.137 -21.990  1.00  0.00     0.199 A 
ATOM     31  C   UNL     1      20.970 -19.025 -23.632  1.00  0.00     0.195 A 
ATOM     32  O   UNL     1      21.822 -18.914 -22.579  1.00  0.00    -0.472 OA
ENDBRANCH  15  28
ENDBRANCH   3   4
ENDBRANCH   2   3
BRANCH   2  33
ATOM     33  O   UNL     1      20.067 -21.911 -27.688  1.00  0.00    -0.469 OA
ATOM     34  C   UNL     1      20.168 -20.506 -27.936  1.00  0.00     0.282 C 
ENDBRANCH   2  33
TORSDOF 4
ENDMDL
MODEL 3
REMARK VINA RESULT:    -7.138      2.297      7.837
REMARK INTER + INTRA:          -9.758
REMARK INTER:                  -8.784
REMARK INTRA:                  -0.974
REMARK UNBOUND:                -0.951
REMARK SMILES COC(=O)C[C@H]1[C@]2(C)C3=C(C)[C@H](c4ccoc4)C[C@H]3O[C@@H]2[C@@H]2OC(=O)[C@]3(C)C=CC(=O)[C@@]1(C)[C@@H]23
REMARK SMILES IDX 4 1 3 2 5 3 6 4 20 5 21 6 19 7 7 8 22 9 9 10 18 11 23 12
REMARK SMILES IDX 34 13 10 14 12 15 32 16 24 17 26 18 30 19 25 20 28 21 31 22
REMARK SMILES IDX 29 23 8 24 11 25 33 26 27 27 13 28 14 29 17 30 15 31 16 32
REMARK SMILES IDX 2 33 1 34
REMARK H PARENT
ROOT
ATOM      1  O   UNL     1      23.693 -25.848 -22.706  1.00  0.00    -0.252 OA
ATOM      2  C   UNL     1      22.980 -26.555 -23.404  1.00  0.00     0.305 C 
ENDROOT
BRANCH   2   3
ATOM      3  C   UNL     1      21.622 -26.192 -23.934  1.00  0.00     0.128 C 
BRANCH   3   4
ATOM      4  C   UNL     1      21.656 -24.845 -24.683  1.00  0.00     0.027 C 
ATOM      5  O   UNL     1      22.904 -23.158 -27.112  1.00  0.00    -0.366 OA
ATOM      6  C   UNL     1      21.575 -23.736 -27.094  1.00  0.00     0.170 C 
ATOM      7  C   UNL     1      23.828 -24.204 -26.838  1.00  0.00     0.146 C 
ATOM      8  C   UNL     1      21.640 -25.064 -26.265  1.00  0.00     0.025 C 
ATOM      9  C   UNL     1      20.555 -22.757 -26.537  1.00  0.00     0.212 C 
ATOM     10  C   UNL     1      23.011 -25.447 -26.733  1.00  0.00    -0.033 C 
ATOM     11  C   UNL     1      24.796 -24.547 -27.958  1.00  0.00     0.049 C 
ATOM     12  O   UNL     1      20.706 -21.412 -27.032  1.00  0.00    -0.459 OA
ATOM     13  C   UNL     1      20.778 -22.564 -25.073  1.00  0.00     0.068 C 
ATOM     14  C   UNL     1      23.639 -26.512 -27.249  1.00  0.00    -0.063 C 
ATOM     15  C   UNL     1      24.957 -26.084 -27.870  1.00  0.00     0.051 C 
ATOM     16  C   UNL     1      20.628 -23.767 -24.146  1.00  0.00     0.042 C 
ATOM     17  C   UNL     1      20.480 -20.516 -25.992  1.00  0.00     0.316 C 
ATOM     18  C   UNL     1      20.013 -21.293 -24.764  1.00  0.00     0.091 C 
ATOM     19  C   UNL     1      21.036 -23.202 -22.753  1.00  0.00     0.162 C 
ATOM     20  O   UNL     1      20.599 -19.304 -26.087  1.00  0.00    -0.251 OA
ATOM     21  C   UNL     1      20.486 -20.849 -23.414  1.00  0.00    -0.005 C 
ATOM     22  O   UNL     1      21.395 -23.927 -21.824  1.00  0.00    -0.294 OA
ATOM     23  C   UNL     1      20.945 -21.718 -22.495  1.00  0.00     0.044 C 
ATOM     24  C   UNL     1      20.517 -25.995 -26.747  1.00  0.00     0.019 C 
ATOM     25  C   UNL     1      23.176 -27.919 -27.387  1.00  0.00     0.040 C 
ATOM     26  C   UNL     1      19.199 -24.306 -24.014  1.00  0.00     0.021 C 
ATOM     27  C   UNL     1      18.480 -21.297 -24.805  1.00  0.00     0.029 C 
BRANCH  15  28
ATOM     28  C   UNL     1      26.113 -26.487 -27.039  1.00  0.00    -0.002 A 
ATOM     29  C   UNL     1      26.801 -27.720 -27.085  1.00  0.00     0.046 A 
ATOM     30  C   UNL     1      26.726 -25.734 -26.069  1.00  0.00     0.199 A 
ATOM     31  C   UNL     1      27.792 -27.634 -26.136  1.00  0.00     0.195 A 
ATOM     32  O   UNL     1      27.753 -26.427 -25.512  1.00  0.00    -0.472 OA
ENDBRANCH  15  28
ENDBRANCH   3   4
ENDBRANCH   2   3
BRANCH   2  33
ATOM     33  O   UNL     1      23.282 -27.815 -23.839  1.00  0.00    -0.469 OA
ATOM     34  C   UNL     1      24.673 -28.077 -24.052  1.00  0.00     0.282 C 
ENDBRANCH   2  33
TORSDOF 4
ENDMDL
MODEL 4
REMARK VINA RESULT:    -7.007      2.000      7.270
REMARK INTER + INTRA:          -9.597
REMARK INTER:                  -8.778
REMARK INTRA:                  -0.819
REMARK UNBOUND:                -0.951
REMARK SMILES COC(=O)C[C@H]1[C@]2(C)C3=C(C)[C@H](c4ccoc4)C[C@H]3O[C@@H]2[C@@H]2OC(=O)[C@]3(C)C=CC(=O)[C@@]1(C)[C@@H]23
REMARK SMILES IDX 4 1 3 2 5 3 6 4 20 5 21 6 19 7 7 8 22 9 9 10 18 11 23 12
REMARK SMILES IDX 34 13 10 14 12 15 32 16 24 17 26 18 30 19 25 20 28 21 31 22
REMARK SMILES IDX 29 23 8 24 11 25 33 26 27 27 13 28 14 29 17 30 15 31 16 32
REMARK SMILES IDX 2 33 1 34
REMARK H PARENT
ROOT
ATOM      1  O   UNL     1      22.823 -28.982 -24.745  1.00  0.00    -0.252 OA
ATOM      2  C   UNL     1      21.933 -29.097 -25.577  1.00  0.00     0.305 C 
ENDROOT
BRANCH   2   3
ATOM      3  C   UNL     1      21.383 -27.997 -26.440  1.00  0.00     0.128 C 
BRANCH   3   4
ATOM      4  C   UNL     1      21.894 -26.617 -25.981  1.00  0.00     0.027 C 
ATOM      5  O   UNL     1      24.404 -24.630 -25.747  1.00  0.00    -0.366 OA
ATOM      6  C   UNL     1      23.339 -24.517 -26.724  1.00  0.00     0.170 C 
ATOM      7  C   UNL     1      24.944 -25.942 -25.853  1.00  0.00     0.146 C 
ATOM      8  C   UNL     1      22.857 -25.965 -27.077  1.00  0.00     0.025 C 
ATOM      9  C   UNL     1      22.209 -23.641 -26.209  1.00  0.00     0.212 C 
ATOM     10  C   UNL     1      24.217 -26.586 -26.984  1.00  0.00    -0.033 C 
ATOM     11  C   UNL     1      26.392 -26.031 -26.307  1.00  0.00     0.049 C 
ATOM     12  O   UNL     1      22.655 -22.441 -25.546  1.00  0.00    -0.459 OA
ATOM     13  C   UNL     1      21.482 -24.339 -25.106  1.00  0.00     0.068 C 
ATOM     14  C   UNL     1      25.012 -27.384 -27.709  1.00  0.00    -0.063 C 
ATOM     15  C   UNL     1      26.439 -27.296 -27.197  1.00  0.00     0.051 C 
ATOM     16  C   UNL     1      20.773 -25.653 -25.417  1.00  0.00     0.042 C 
ATOM     17  C   UNL     1      21.850 -22.206 -24.437  1.00  0.00     0.316 C 
ATOM     18  C   UNL     1      20.711 -23.223 -24.431  1.00  0.00     0.091 C 
ATOM     19  C   UNL     1      20.240 -26.113 -24.026  1.00  0.00     0.162 C 
ATOM     20  O   UNL     1      22.021 -21.298 -23.639  1.00  0.00    -0.251 OA
ATOM     21  C   UNL     1      20.255 -23.779 -23.117  1.00  0.00    -0.005 C 
ATOM     22  O   UNL     1      19.937 -27.282 -23.787  1.00  0.00    -0.294 OA
ATOM     23  C   UNL     1      20.034 -25.093 -22.933  1.00  0.00     0.044 C 
ATOM     24  C   UNL     1      22.256 -25.948 -28.491  1.00  0.00     0.019 C 
ATOM     25  C   UNL     1      24.711 -28.175 -28.932  1.00  0.00     0.040 C 
ATOM     26  C   UNL     1      19.559 -25.527 -26.345  1.00  0.00     0.021 C 
ATOM     27  C   UNL     1      19.532 -22.564 -25.157  1.00  0.00     0.029 C 
BRANCH  15  28
ATOM     28  C   UNL     1      26.827 -28.507 -26.440  1.00  0.00    -0.002 A 
ATOM     29  C   UNL     1      28.131 -29.026 -26.284  1.00  0.00     0.046 A 
ATOM     30  C   UNL     1      25.987 -29.348 -25.754  1.00  0.00     0.199 A 
ATOM     31  C   UNL     1      27.997 -30.153 -25.508  1.00  0.00     0.195 A 
ATOM     32  O   UNL     1      26.694 -30.356 -25.181  1.00  0.00    -0.472 OA
ENDBRANCH  15  28
ENDBRANCH   3   4
ENDBRANCH   2   3
BRANCH   2  33
ATOM     33  O   UNL     1      21.269 -30.250 -25.884  1.00  0.00    -0.469 OA
ATOM     34  C   UNL     1      20.324 -30.697 -24.907  1.00  0.00     0.282 C 
ENDBRANCH   2  33
TORSDOF 4
ENDMDL
MODEL 5
REMARK VINA RESULT:    -6.637      3.138      4.683
REMARK INTER + INTRA:          -9.140
REMARK INTER:                  -8.207
REMARK INTRA:                  -0.933
REMARK UNBOUND:                -0.951
REMARK SMILES COC(=O)C[C@H]1[C@]2(C)C3=C(C)[C@H](c4ccoc4)C[C@H]3O[C@@H]2[C@@H]2OC(=O)[C@]3(C)C=CC(=O)[C@@]1(C)[C@@H]23
REMARK SMILES IDX 4 1 3 2 5 3 6 4 20 5 21 6 19 7 7 8 22 9 9 10 18 11 23 12
REMARK SMILES IDX 34 13 10 14 12 15 32 16 24 17 26 18 30 19 25 20 28 21 31 22
REMARK SMILES IDX 29 23 8 24 11 25 33 26 27 27 13 28 14 29 17 30 15 31 16 32
REMARK SMILES IDX 2 33 1 34
REMARK H PARENT
ROOT
ATOM      1  O   UNL     1      23.676 -23.978 -25.840  1.00  0.00    -0.252 OA
ATOM      2  C   UNL     1      22.814 -23.653 -26.645  1.00  0.00     0.305 C 
ENDROOT
BRANCH   2   3
ATOM      3  C   UNL     1      21.921 -24.588 -27.410  1.00  0.00     0.128 C 
BRANCH   3   4
ATOM      4  C   UNL     1      21.448 -25.758 -26.526  1.00  0.00     0.027 C 
ATOM      5  O   UNL     1      20.046 -26.647 -23.778  1.00  0.00    -0.366 OA
ATOM      6  C   UNL     1      19.410 -26.659 -25.081  1.00  0.00     0.170 C 
ATOM      7  C   UNL     1      20.550 -25.334 -23.561  1.00  0.00     0.146 C 
ATOM      8  C   UNL     1      20.001 -25.470 -25.914  1.00  0.00     0.025 C 
ATOM      9  C   UNL     1      19.598 -27.999 -25.773  1.00  0.00     0.212 C 
ATOM     10  C   UNL     1      20.124 -24.538 -24.748  1.00  0.00    -0.033 C 
ATOM     11  C   UNL     1      19.924 -24.562 -22.412  1.00  0.00     0.049 C 
ATOM     12  O   UNL     1      19.401 -29.135 -24.909  1.00  0.00    -0.459 OA
ATOM     13  C   UNL     1      21.026 -28.171 -26.175  1.00  0.00     0.068 C 
ATOM     14  C   UNL     1      19.793 -23.281 -24.422  1.00  0.00    -0.063 C 
ATOM     15  C   UNL     1      19.866 -23.100 -22.917  1.00  0.00     0.051 C 
ATOM     16  C   UNL     1      21.626 -27.190 -27.177  1.00  0.00     0.042 C 
ATOM     17  C   UNL     1      20.350 -30.106 -25.210  1.00  0.00     0.316 C 
ATOM     18  C   UNL     1      21.140 -29.659 -26.438  1.00  0.00     0.091 C 
ATOM     19  C   UNL     1      23.121 -27.624 -27.255  1.00  0.00     0.162 C 
ATOM     20  O   UNL     1      20.479 -31.158 -24.603  1.00  0.00    -0.251 OA
ATOM     21  C   UNL     1      22.607 -29.953 -26.490  1.00  0.00    -0.005 C 
ATOM     22  O   UNL     1      24.008 -26.873 -27.662  1.00  0.00    -0.294 OA
ATOM     23  C   UNL     1      23.509 -29.030 -26.868  1.00  0.00     0.044 C 
ATOM     24  C   UNL     1      18.961 -25.047 -26.963  1.00  0.00     0.019 C 
ATOM     25  C   UNL     1      19.282 -22.177 -25.279  1.00  0.00     0.040 C 
ATOM     26  C   UNL     1      21.054 -27.286 -28.596  1.00  0.00     0.021 C 
ATOM     27  C   UNL     1      20.440 -30.274 -27.656  1.00  0.00     0.029 C 
BRANCH  15  28
ATOM     28  C   UNL     1      21.054 -22.314 -22.514  1.00  0.00    -0.002 A 
ATOM     29  C   UNL     1      22.229 -22.806 -21.906  1.00  0.00     0.046 A 
ATOM     30  C   UNL     1      21.227 -20.960 -22.659  1.00  0.00     0.199 A 
ATOM     31  C   UNL     1      23.043 -21.714 -21.720  1.00  0.00     0.195 A 
ATOM     32  O   UNL     1      22.440 -20.585 -22.176  1.00  0.00    -0.472 OA
ENDBRANCH  15  28
ENDBRANCH   3   4
ENDBRANCH   2   3
BRANCH   2  33
ATOM     33  O   UNL     1      22.495 -22.374 -27.003  1.00  0.00    -0.469 OA
ATOM     34  C   UNL     1      22.714 -21.379 -25.998  1.00  0.00     0.282 C 
ENDBRANCH   2  33
TORSDOF 4
ENDMDL
MODEL 6
REMARK VINA RESULT:    -6.567      2.212      3.961
REMARK INTER + INTRA:          -9.054
REMARK INTER:                  -8.075
REMARK INTRA:                  -0.978
REMARK UNBOUND:                -0.951
REMARK SMILES COC(=O)C[C@H]1[C@]2(C)C3=C(C)[C@H](c4ccoc4)C[C@H]3O[C@@H]2[C@@H]2OC(=O)[C@]3(C)C=CC(=O)[C@@]1(C)[C@@H]23
REMARK SMILES IDX 4 1 3 2 5 3 6 4 20 5 21 6 19 7 7 8 22 9 9 10 18 11 23 12
REMARK SMILES IDX 34 13 10 14 12 15 32 16 24 17 26 18 30 19 25 20 28 21 31 22
REMARK SMILES IDX 29 23 8 24 11 25 33 26 27 27 13 28 14 29 17 30 15 31 16 32
REMARK SMILES IDX 2 33 1 34
REMARK H PARENT
ROOT
ATOM      1  O   UNL     1      21.513 -28.047 -27.066  1.00  0.00    -0.252 OA
ATOM      2  C   UNL     1      21.574 -28.554 -25.954  1.00  0.00     0.305 C 
ENDROOT
BRANCH   2   3
ATOM      3  C   UNL     1      22.809 -28.691 -25.111  1.00  0.00     0.128 C 
BRANCH   3   4
ATOM      4  C   UNL     1      23.998 -27.932 -25.734  1.00  0.00     0.027 C 
ATOM      5  O   UNL     1      25.190 -25.090 -26.634  1.00  0.00    -0.366 OA
ATOM      6  C   UNL     1      25.575 -25.816 -25.439  1.00  0.00     0.170 C 
ATOM      7  C   UNL     1      23.776 -24.938 -26.604  1.00  0.00     0.146 C 
ATOM      8  C   UNL     1      24.315 -26.593 -24.923  1.00  0.00     0.025 C 
ATOM      9  C   UNL     1      26.752 -26.738 -25.709  1.00  0.00     0.212 C 
ATOM     10  C   UNL     1      23.334 -25.528 -25.308  1.00  0.00    -0.033 C 
ATOM     11  C   UNL     1      23.264 -23.511 -26.501  1.00  0.00     0.049 C 
ATOM     12  O   UNL     1      27.792 -26.140 -26.506  1.00  0.00    -0.459 OA
ATOM     13  C   UNL     1      26.323 -27.874 -26.580  1.00  0.00     0.068 C 
ATOM     14  C   UNL     1      22.322 -24.844 -24.758  1.00  0.00    -0.063 C 
ATOM     15  C   UNL     1      22.012 -23.616 -25.596  1.00  0.00     0.051 C 
ATOM     16  C   UNL     1      25.259 -28.833 -26.057  1.00  0.00     0.042 C 
ATOM     17  C   UNL     1      28.280 -27.084 -27.403  1.00  0.00     0.316 C 
ATOM     18  C   UNL     1      27.632 -28.433 -27.099  1.00  0.00     0.091 C 
ATOM     19  C   UNL     1      25.011 -29.789 -27.263  1.00  0.00     0.162 C 
ATOM     20  O   UNL     1      29.124 -26.856 -28.256  1.00  0.00    -0.251 OA
ATOM     21  C   UNL     1      27.268 -29.326 -28.245  1.00  0.00    -0.005 C 
ATOM     22  O   UNL     1      23.985 -30.460 -27.375  1.00  0.00    -0.294 OA
ATOM     23  C   UNL     1      26.078 -29.949 -28.318  1.00  0.00     0.044 C 
ATOM     24  C   UNL     1      24.463 -26.810 -23.410  1.00  0.00     0.019 C 
ATOM     25  C   UNL     1      21.614 -25.059 -23.467  1.00  0.00     0.040 C 
ATOM     26  C   UNL     1      25.700 -29.705 -24.875  1.00  0.00     0.021 C 
ATOM     27  C   UNL     1      28.580 -29.168 -26.144  1.00  0.00     0.029 C 
BRANCH  15  28
ATOM     28  C   UNL     1      20.763 -23.780 -26.372  1.00  0.00    -0.002 A 
ATOM     29  C   UNL     1      19.992 -24.956 -26.496  1.00  0.00     0.046 A 
ATOM     30  C   UNL     1      20.128 -22.816 -27.114  1.00  0.00     0.199 A 
ATOM     31  C   UNL     1      18.933 -24.628 -27.309  1.00  0.00     0.195 A 
ATOM     32  O   UNL     1      19.009 -23.326 -27.691  1.00  0.00    -0.472 OA
ENDBRANCH  15  28
ENDBRANCH   3   4
ENDBRANCH   2   3
BRANCH   2  33
ATOM     33  O   UNL     1      20.526 -29.093 -25.263  1.00  0.00    -0.469 OA
ATOM     34  C   UNL     1      20.580 -30.510 -25.067  1.00  0.00     0.282 C 
ENDBRANCH   2  33
TORSDOF 4
ENDMDL
MODEL 7
REMARK VINA RESULT:    -6.434      3.129      5.123
REMARK INTER + INTRA:          -8.890
REMARK INTER:                  -8.094
REMARK INTRA:                  -0.796
REMARK UNBOUND:                -0.951
REMARK SMILES COC(=O)C[C@H]1[C@]2(C)C3=C(C)[C@H](c4ccoc4)C[C@H]3O[C@@H]2[C@@H]2OC(=O)[C@]3(C)C=CC(=O)[C@@]1(C)[C@@H]23
REMARK SMILES IDX 4 1 3 2 5 3 6 4 20 5 21 6 19 7 7 8 22 9 9 10 18 11 23 12
REMARK SMILES IDX 34 13 10 14 12 15 32 16 24 17 26 18 30 19 25 20 28 21 31 22
REMARK SMILES IDX 29 23 8 24 11 25 33 26 27 27 13 28 14 29 17 30 15 31 16 32
REMARK SMILES IDX 2 33 1 34
REMARK H PARENT
ROOT
ATOM      1  O   UNL     1      23.699 -24.467 -25.111  1.00  0.00    -0.252 OA
ATOM      2  C   UNL     1      23.540 -24.397 -26.322  1.00  0.00     0.305 C 
ENDROOT
BRANCH   2   3
ATOM      3  C   UNL     1      22.361 -24.920 -27.090  1.00  0.00     0.128 C 
BRANCH   3   4
ATOM      4  C   UNL     1      21.522 -25.890 -26.235  1.00  0.00     0.027 C 
ATOM      5  O   UNL     1      19.673 -26.262 -23.637  1.00  0.00    -0.366 OA
ATOM      6  C   UNL     1      19.188 -26.182 -25.002  1.00  0.00     0.170 C 
ATOM      7  C   UNL     1      20.468 -25.106 -23.398  1.00  0.00     0.146 C 
ATOM      8  C   UNL     1      20.140 -25.221 -25.793  1.00  0.00     0.025 C 
ATOM      9  C   UNL     1      19.100 -27.560 -25.637  1.00  0.00     0.212 C 
ATOM     10  C   UNL     1      20.377 -24.290 -24.643  1.00  0.00    -0.033 C 
ATOM     11  C   UNL     1      19.945 -24.145 -22.344  1.00  0.00     0.049 C 
ATOM     12  O   UNL     1      18.538 -28.566 -24.772  1.00  0.00    -0.459 OA
ATOM     13  C   UNL     1      20.471 -28.102 -25.876  1.00  0.00     0.068 C 
ATOM     14  C   UNL     1      20.344 -22.976 -24.386  1.00  0.00    -0.063 C 
ATOM     15  C   UNL     1      20.309 -22.742 -22.886  1.00  0.00     0.051 C 
ATOM     16  C   UNL     1      21.397 -27.353 -26.828  1.00  0.00     0.042 C 
ATOM     17  C   UNL     1      19.236 -29.757 -24.944  1.00  0.00     0.316 C 
ATOM     18  C   UNL     1      20.232 -29.583 -26.089  1.00  0.00     0.091 C 
ATOM     19  C   UNL     1      22.734 -28.147 -26.732  1.00  0.00     0.162 C 
ATOM     20  O   UNL     1      19.034 -30.775 -24.302  1.00  0.00    -0.251 OA
ATOM     21  C   UNL     1      21.575 -30.234 -25.973  1.00  0.00    -0.005 C 
ATOM     22  O   UNL     1      23.818 -27.661 -27.057  1.00  0.00    -0.294 OA
ATOM     23  C   UNL     1      22.715 -29.584 -26.271  1.00  0.00     0.044 C 
ATOM     24  C   UNL     1      19.352 -24.607 -26.960  1.00  0.00     0.019 C 
ATOM     25  C   UNL     1      20.216 -21.824 -25.320  1.00  0.00     0.040 C 
ATOM     26  C   UNL     1      20.965 -27.375 -28.299  1.00  0.00     0.021 C 
ATOM     27  C   UNL     1      19.525 -30.066 -27.361  1.00  0.00     0.029 C 
BRANCH  15  28
ATOM     28  C   UNL     1      21.609 -22.256 -22.375  1.00  0.00    -0.002 A 
ATOM     29  C   UNL     1      22.071 -22.316 -21.042  1.00  0.00     0.046 A 
ATOM     30  C   UNL     1      22.604 -21.657 -23.106  1.00  0.00     0.199 A 
ATOM     31  C   UNL     1      23.323 -21.747 -21.050  1.00  0.00     0.195 A 
ATOM     32  O   UNL     1      23.654 -21.342 -22.304  1.00  0.00    -0.472 OA
ENDBRANCH  15  28
ENDBRANCH   3   4
ENDBRANCH   2   3
BRANCH   2  33
ATOM     33  O   UNL     1      24.407 -23.826 -27.211  1.00  0.00    -0.469 OA
ATOM     34  C   UNL     1      25.575 -24.596 -27.514  1.00  0.00     0.282 C 
ENDBRANCH   2  33
TORSDOF 4
ENDMDL
MODEL 8
REMARK VINA RESULT:    -6.177      2.471      4.834
REMARK INTER + INTRA:          -8.572
REMARK INTER:                  -7.527
REMARK INTRA:                  -1.045
REMARK UNBOUND:                -0.951
REMARK SMILES COC(=O)C[C@H]1[C@]2(C)C3=C(C)[C@H](c4ccoc4)C[C@H]3O[C@@H]2[C@@H]2OC(=O)[C@]3(C)C=CC(=O)[C@@]1(C)[C@@H]23
REMARK SMILES IDX 4 1 3 2 5 3 6 4 20 5 21 6 19 7 7 8 22 9 9 10 18 11 23 12
REMARK SMILES IDX 34 13 10 14 12 15 32 16 24 17 26 18 30 19 25 20 28 21 31 22
REMARK SMILES IDX 29 23 8 24 11 25 33 26 27 27 13 28 14 29 17 30 15 31 16 32
REMARK SMILES IDX 2 33 1 34
REMARK H PARENT
ROOT
ATOM      1  O   UNL     1      18.927 -24.785 -23.111  1.00  0.00    -0.252 OA
ATOM      2  C   UNL     1      19.439 -25.419 -24.023  1.00  0.00     0.305 C 
ENDROOT
BRANCH   2   3
ATOM      3  C   UNL     1      20.486 -26.486 -23.879  1.00  0.00     0.128 C 
BRANCH   3   4
ATOM      4  C   UNL     1      21.625 -26.295 -24.900  1.00  0.00     0.027 C 
ATOM      5  O   UNL     1      23.694 -24.249 -26.256  1.00  0.00    -0.366 OA
ATOM      6  C   UNL     1      24.032 -25.228 -25.242  1.00  0.00     0.170 C 
ATOM      7  C   UNL     1      22.627 -23.457 -25.746  1.00  0.00     0.146 C 
ATOM      8  C   UNL     1      22.793 -25.387 -24.296  1.00  0.00     0.025 C 
ATOM      9  C   UNL     1      24.455 -26.547 -25.868  1.00  0.00     0.212 C 
ATOM     10  C   UNL     1      22.392 -23.945 -24.357  1.00  0.00    -0.033 C 
ATOM     11  C   UNL     1      22.938 -21.987 -25.523  1.00  0.00     0.049 C 
ATOM     12  O   UNL     1      25.340 -26.401 -26.995  1.00  0.00    -0.459 OA
ATOM     13  C   UNL     1      23.276 -27.216 -26.496  1.00  0.00     0.068 C 
ATOM     14  C   UNL     1      22.075 -22.951 -23.517  1.00  0.00    -0.063 C 
ATOM     15  C   UNL     1      22.156 -21.618 -24.240  1.00  0.00     0.051 C 
ATOM     16  C   UNL     1      22.109 -27.627 -25.605  1.00  0.00     0.042 C 
ATOM     17  C   UNL     1      24.991 -27.329 -27.971  1.00  0.00     0.316 C 
ATOM     18  C   UNL     1      23.904 -28.245 -27.414  1.00  0.00     0.091 C 
ATOM     19  C   UNL     1      21.059 -28.177 -26.616  1.00  0.00     0.162 C 
ATOM     20  O   UNL     1      25.518 -27.407 -29.069  1.00  0.00    -0.251 OA
ATOM     21  C   UNL     1      22.809 -28.694 -28.332  1.00  0.00    -0.005 C 
ATOM     22  O   UNL     1      19.861 -28.267 -26.344  1.00  0.00    -0.294 OA
ATOM     23  C   UNL     1      21.514 -28.671 -27.968  1.00  0.00     0.044 C 
ATOM     24  C   UNL     1      23.288 -25.856 -22.919  1.00  0.00     0.019 C 
ATOM     25  C   UNL     1      21.805 -22.986 -22.055  1.00  0.00     0.040 C 
ATOM     26  C   UNL     1      22.418 -28.758 -24.617  1.00  0.00     0.021 C 
ATOM     27  C   UNL     1      24.619 -29.463 -26.819  1.00  0.00     0.029 C 
BRANCH  15  28
ATOM     28  C   UNL     1      20.814 -21.068 -24.532  1.00  0.00    -0.002 A 
ATOM     29  C   UNL     1      19.721 -20.985 -23.641  1.00  0.00     0.046 A 
ATOM     30  C   UNL     1      20.387 -20.540 -25.724  1.00  0.00     0.199 A 
ATOM     31  C   UNL     1      18.697 -20.408 -24.354  1.00  0.00     0.195 A 
ATOM     32  O   UNL     1      19.094 -20.134 -25.625  1.00  0.00    -0.472 OA
ENDBRANCH  15  28
ENDBRANCH   3   4
ENDBRANCH   2   3
BRANCH   2  33
ATOM     33  O   UNL     1      19.156 -25.279 -25.352  1.00  0.00    -0.469 OA
ATOM     34  C   UNL     1      18.798 -23.958 -25.772  1.00  0.00     0.282 C 
ENDBRANCH   2  33
TORSDOF 4
ENDMDL
MODEL 9
REMARK VINA RESULT:    -5.981      2.436      4.017
REMARK INTER + INTRA:          -8.331
REMARK INTER:                  -7.377
REMARK INTRA:                  -0.954
REMARK UNBOUND:                -0.951
REMARK SMILES COC(=O)C[C@H]1[C@]2(C)C3=C(C)[C@H](c4ccoc4)C[C@H]3O[C@@H]2[C@@H]2OC(=O)[C@]3(C)C=CC(=O)[C@@]1(C)[C@@H]23
REMARK SMILES IDX 4 1 3 2 5 3 6 4 20 5 21 6 19 7 7 8 22 9 9 10 18 11 23 12
REMARK SMILES IDX 34 13 10 14 12 15 32 16 24 17 26 18 30 19 25 20 28 21 31 22
REMARK SMILES IDX 29 23 8 24 11 25 33 26 27 27 13 28 14 29 17 30 15 31 16 32
REMARK SMILES IDX 2 33 1 34
REMARK H PARENT
ROOT
ATOM      1  O   UNL     1      18.998 -27.542 -26.949  1.00  0.00    -0.252 OA
ATOM      2  C   UNL     1      20.173 -27.228 -26.812  1.00  0.00     0.305 C 
ENDROOT
BRANCH   2   3
ATOM      3  C   UNL     1      21.060 -27.604 -25.660  1.00  0.00     0.128 C 
BRANCH   3   4
ATOM      4  C   UNL     1      22.500 -27.096 -25.872  1.00  0.00     0.027 C 
ATOM      5  O   UNL     1      24.440 -24.547 -26.080  1.00  0.00    -0.366 OA
ATOM      6  C   UNL     1      24.339 -25.427 -24.932  1.00  0.00     0.170 C 
ATOM      7  C   UNL     1      23.130 -24.075 -26.373  1.00  0.00     0.146 C 
ATOM      8  C   UNL     1      22.857 -25.929 -24.842  1.00  0.00     0.025 C 
ATOM      9  C   UNL     1      25.332 -26.574 -25.027  1.00  0.00     0.212 C 
ATOM     10  C   UNL     1      22.251 -24.641 -25.310  1.00  0.00    -0.033 C 
ATOM     11  C   UNL     1      22.910 -22.580 -26.212  1.00  0.00     0.049 C 
ATOM     12  O   UNL     1      26.645 -26.174 -25.465  1.00  0.00    -0.459 OA
ATOM     13  C   UNL     1      24.927 -27.513 -26.116  1.00  0.00     0.068 C 
ATOM     14  C   UNL     1      21.290 -23.785 -24.938  1.00  0.00    -0.063 C 
ATOM     15  C   UNL     1      21.470 -22.460 -25.658  1.00  0.00     0.051 C 
ATOM     16  C   UNL     1      23.590 -28.237 -25.996  1.00  0.00     0.042 C 
ATOM     17  C   UNL     1      27.150 -27.137 -26.332  1.00  0.00     0.316 C 
ATOM     18  C   UNL     1      26.184 -28.319 -26.371  1.00  0.00     0.091 C 
ATOM     19  C   UNL     1      23.481 -29.019 -27.339  1.00  0.00     0.162 C 
ATOM     20  O   UNL     1      28.217 -27.047 -26.918  1.00  0.00    -0.251 OA
ATOM     21  C   UNL     1      25.963 -29.017 -27.677  1.00  0.00    -0.005 C 
ATOM     22  O   UNL     1      22.406 -29.426 -27.783  1.00  0.00    -0.294 OA
ATOM     23  C   UNL     1      24.733 -29.343 -28.116  1.00  0.00     0.044 C 
ATOM     24  C   UNL     1      22.552 -26.284 -23.379  1.00  0.00     0.019 C 
ATOM     25  C   UNL     1      20.238 -23.926 -23.896  1.00  0.00     0.040 C 
ATOM     26  C   UNL     1      23.515 -29.271 -24.865  1.00  0.00     0.021 C 
ATOM     27  C   UNL     1      26.675 -29.320 -25.320  1.00  0.00     0.029 C 
BRANCH  15  28
ATOM     28  C   UNL     1      20.465 -22.275 -26.728  1.00  0.00    -0.002 A 
ATOM     29  C   UNL     1      19.453 -23.185 -27.106  1.00  0.00     0.046 A 
ATOM     30  C   UNL     1      20.334 -21.183 -27.549  1.00  0.00     0.199 A 
ATOM     31  C   UNL     1      18.770 -22.583 -28.137  1.00  0.00     0.195 A 
ATOM     32  O   UNL     1      19.301 -21.363 -28.412  1.00  0.00    -0.472 OA
ENDBRANCH  15  28
ENDBRANCH   3   4
ENDBRANCH   2   3
BRANCH   2  33
ATOM     33  O   UNL     1      20.907 -26.476 -27.685  1.00  0.00    -0.469 OA
ATOM     34  C   UNL     1      20.536 -26.591 -29.062  1.00  0.00     0.282 C 
ENDBRANCH   2  33
TORSDOF 4
ENDMDL
