MODEL 1
REMARK VINA RESULT:    -4.595      0.000      0.000
REMARK INTER + INTRA:          -7.985
REMARK INTER:                  -6.743
REMARK INTRA:                  -1.242
REMARK UNBOUND:                -1.242
REMARK SMILES COC(=O)C[C@H]1[C@]2(C)C3=C(C)[C@H](c4ccoc4)C[C@H]3O[C@@H]2[C@H](OC(C)=O)[C@@H]2[C@]1(C)C(=O)C=C[C@@]2(C)C(=O)OC
REMARK SMILES IDX 20 1 31 2 7 3 6 4 28 5 21 6 27 7 22 8 9 9 19 10 34 11 8 12
REMARK SMILES IDX 18 13 10 14 29 15 30 16 12 17 33 18 35 19 32 20 11 21 23 22
REMARK SMILES IDX 24 23 26 24 25 25 5 26 3 27 4 28 2 29 1 30 13 31 14 32 17 33
REMARK SMILES IDX 15 34 16 35 36 36 37 37 38 38 39 39
REMARK H PARENT
ROOT
ATOM      1  O   UNL     1      27.773  29.142  63.032  1.00  0.00    -0.366 OA
ATOM      2  O   UNL     1      28.329  33.905  60.967  1.00  0.00    -0.294 OA
ATOM      3  C   UNL     1      29.665  30.579  63.530  1.00  0.00     0.025 C 
ATOM      4  C   UNL     1      29.369  31.842  62.631  1.00  0.00     0.027 C 
ATOM      5  C   UNL     1      28.269  32.838  63.184  1.00  0.00     0.042 C 
ATOM      6  C   UNL     1      28.379  29.928  64.093  1.00  0.00     0.170 C 
ATOM      7  C   UNL     1      27.004  32.022  63.648  1.00  0.00     0.068 C 
ATOM      8  C   UNL     1      27.372  30.921  64.663  1.00  0.00     0.211 C 
ATOM      9  C   UNL     1      30.043  29.417  62.660  1.00  0.00    -0.033 C 
ATOM     10  C   UNL     1      28.793  28.841  62.089  1.00  0.00     0.146 C 
ATOM     11  C   UNL     1      25.789  32.915  64.089  1.00  0.00     0.091 C 
ATOM     12  C   UNL     1      30.636  30.833  64.695  1.00  0.00     0.019 C 
ATOM     13  C   UNL     1      29.153  27.373  61.937  1.00  0.00     0.049 C 
ATOM     14  C   UNL     1      31.114  28.652  62.410  1.00  0.00    -0.063 C 
ATOM     15  C   UNL     1      28.836  33.778  64.265  1.00  0.00     0.021 C 
ATOM     16  C   UNL     1      27.750  33.749  62.040  1.00  0.00     0.162 C 
ATOM     17  C   UNL     1      30.683  27.376  61.705  1.00  0.00     0.051 C 
ATOM     18  C   UNL     1      25.644  34.145  63.224  1.00  0.00    -0.005 C 
ATOM     19  C   UNL     1      25.763  33.304  65.575  1.00  0.00     0.029 C 
ATOM     20  C   UNL     1      26.501  34.518  62.269  1.00  0.00     0.044 C 
ATOM     21  C   UNL     1      32.531  28.827  62.825  1.00  0.00     0.040 C 
ENDROOT
BRANCH   8  22
ATOM     22  O   UNL     1      26.220  30.184  65.071  1.00  0.00    -0.459 OA
BRANCH  22  23
ATOM     23  C   UNL     1      26.300  29.599  66.301  1.00  0.00     0.303 C 
ATOM     24  O   UNL     1      27.218  28.903  66.714  1.00  0.00    -0.253 OA
ATOM     25  C   UNL     1      25.077  29.934  67.100  1.00  0.00     0.139 C 
ENDBRANCH  22  23
ENDBRANCH   8  22
BRANCH   4  26
ATOM     26  C   UNL     1      30.695  32.519  62.210  1.00  0.00     0.128 C 
BRANCH  26  27
ATOM     27  C   UNL     1      31.054  32.172  60.796  1.00  0.00     0.305 C 
ATOM     28  O   UNL     1      30.464  31.382  60.073  1.00  0.00    -0.252 OA
BRANCH  27  29
ATOM     29  O   UNL     1      32.163  32.896  60.456  1.00  0.00    -0.469 OA
ATOM     30  C   UNL     1      31.952  34.302  60.289  1.00  0.00     0.282 C 
ENDBRANCH  27  29
ENDBRANCH  26  27
ENDBRANCH   4  26
BRANCH  17  31
ATOM     31  C   UNL     1      31.039  27.396  60.269  1.00  0.00    -0.002 A 
ATOM     32  C   UNL     1      32.266  27.000  59.695  1.00  0.00     0.046 A 
ATOM     33  C   UNL     1      30.238  27.804  59.232  1.00  0.00     0.199 A 
ATOM     34  C   UNL     1      32.130  27.194  58.340  1.00  0.00     0.195 A 
ATOM     35  O   UNL     1      30.896  27.685  58.050  1.00  0.00    -0.472 OA
ENDBRANCH  17  31
BRANCH  11  36
ATOM     36  C   UNL     1      24.501  32.177  63.791  1.00  0.00     0.315 C 
ATOM     37  O   UNL     1      24.181  31.779  62.679  1.00  0.00    -0.251 OA
BRANCH  36  38
ATOM     38  O   UNL     1      23.780  32.038  64.940  1.00  0.00    -0.468 OA
ATOM     39  C   UNL     1      22.474  32.624  64.920  1.00  0.00     0.282 C 
ENDBRANCH  36  38
ENDBRANCH  11  36
TORSDOF 8
ENDMDL
MODEL 2
REMARK VINA RESULT:    -3.494     28.348     31.541
REMARK INTER + INTRA:          -6.370
REMARK INTER:                  -7.480
REMARK INTRA:                   1.110
REMARK UNBOUND:                -1.242
REMARK SMILES COC(=O)C[C@H]1[C@]2(C)C3=C(C)[C@H](c4ccoc4)C[C@H]3O[C@@H]2[C@H](OC(C)=O)[C@@H]2[C@]1(C)C(=O)C=C[C@@]2(C)C(=O)OC
REMARK SMILES IDX 20 1 31 2 7 3 6 4 28 5 21 6 27 7 22 8 9 9 19 10 34 11 8 12
REMARK SMILES IDX 18 13 10 14 29 15 30 16 12 17 33 18 35 19 32 20 11 21 23 22
REMARK SMILES IDX 24 23 26 24 25 25 5 26 3 27 4 28 2 29 1 30 13 31 14 32 17 33
REMARK SMILES IDX 15 34 16 35 36 36 37 37 38 38 39 39
REMARK H PARENT
ROOT
ATOM      1  O   UNL     1      17.006  55.574  47.328  1.00  0.00    -0.366 OA
ATOM      2  O   UNL     1      17.607  52.699  43.012  1.00  0.00    -0.294 OA
ATOM      3  C   UNL     1      16.615  53.178  47.278  1.00  0.00     0.025 C 
ATOM      4  C   UNL     1      16.886  52.829  45.763  1.00  0.00     0.027 C 
ATOM      5  C   UNL     1      18.409  52.745  45.338  1.00  0.00     0.042 C 
ATOM      6  C   UNL     1      17.532  54.307  47.808  1.00  0.00     0.170 C 
ATOM      7  C   UNL     1      19.182  54.000  45.896  1.00  0.00     0.068 C 
ATOM      8  C   UNL     1      18.998  54.157  47.419  1.00  0.00     0.211 C 
ATOM      9  C   UNL     1      15.342  53.964  47.396  1.00  0.00    -0.033 C 
ATOM     10  C   UNL     1      15.633  55.376  47.019  1.00  0.00     0.146 C 
ATOM     11  C   UNL     1      20.676  54.097  45.420  1.00  0.00     0.091 C 
ATOM     12  C   UNL     1      16.705  51.982  48.240  1.00  0.00     0.019 C 
ATOM     13  C   UNL     1      14.637  56.148  47.866  1.00  0.00     0.049 C 
ATOM     14  C   UNL     1      14.112  53.819  47.908  1.00  0.00    -0.063 C 
ATOM     15  C   UNL     1      19.042  51.397  45.732  1.00  0.00     0.021 C 
ATOM     16  C   UNL     1      18.540  52.858  43.796  1.00  0.00     0.162 C 
ATOM     17  C   UNL     1      13.444  55.178  48.035  1.00  0.00     0.051 C 
ATOM     18  C   UNL     1      20.846  53.656  43.985  1.00  0.00    -0.005 C 
ATOM     19  C   UNL     1      21.700  53.389  46.320  1.00  0.00     0.029 C 
ATOM     20  C   UNL     1      19.883  53.127  43.225  1.00  0.00     0.044 C 
ATOM     21  C   UNL     1      13.437  52.608  48.443  1.00  0.00     0.040 C 
ENDROOT
BRANCH   8  22
ATOM     22  O   UNL     1      19.697  55.299  47.911  1.00  0.00    -0.459 OA
BRANCH  22  23
ATOM     23  C   UNL     1      20.719  55.037  48.777  1.00  0.00     0.303 C 
ATOM     24  O   UNL     1      21.015  53.943  49.238  1.00  0.00    -0.253 OA
ATOM     25  C   UNL     1      21.449  56.306  49.096  1.00  0.00     0.139 C 
ENDBRANCH  22  23
ENDBRANCH   8  22
BRANCH   4  26
ATOM     26  C   UNL     1      16.032  51.611  45.336  1.00  0.00     0.128 C 
BRANCH  26  27
ATOM     27  C   UNL     1      15.300  51.886  44.056  1.00  0.00     0.305 C 
ATOM     28  O   UNL     1      15.076  51.081  43.164  1.00  0.00    -0.252 OA
BRANCH  27  29
ATOM     29  O   UNL     1      14.926  53.201  44.062  1.00  0.00    -0.469 OA
ATOM     30  C   UNL     1      15.288  53.949  42.896  1.00  0.00     0.282 C 
ENDBRANCH  27  29
ENDBRANCH  26  27
ENDBRANCH   4  26
BRANCH  17  31
ATOM     31  C   UNL     1      12.401  55.376  47.003  1.00  0.00    -0.002 A 
ATOM     32  C   UNL     1      11.298  54.536  46.742  1.00  0.00     0.046 A 
ATOM     33  C   UNL     1      12.319  56.416  46.111  1.00  0.00     0.199 A 
ATOM     34  C   UNL     1      10.614  55.122  45.703  1.00  0.00     0.195 A 
ATOM     35  O   UNL     1      11.231  56.269  45.313  1.00  0.00    -0.472 OA
ENDBRANCH  17  31
BRANCH  11  36
ATOM     36  C   UNL     1      21.074  55.556  45.342  1.00  0.00     0.315 C 
ATOM     37  O   UNL     1      20.315  56.456  45.009  1.00  0.00    -0.251 OA
BRANCH  36  38
ATOM     38  O   UNL     1      22.385  55.690  45.693  1.00  0.00    -0.468 OA
ATOM     39  C   UNL     1      22.776  57.000  46.118  1.00  0.00     0.282 C 
ENDBRANCH  36  38
ENDBRANCH  11  36
TORSDOF 8
ENDMDL
