MODEL 1
REMARK VINA RESULT:    -9.666      0.000      0.000
REMARK INTER + INTRA:         -11.777
REMARK INTER:                 -11.644
REMARK INTRA:                  -0.133
REMARK UNBOUND:                -0.133
REMARK SMILES O=c1c(O)c(-c2ccc(O)c(O)c2)oc2cc(O)cc(O)c12
REMARK SMILES IDX 14 1 1 2 22 3 15 4 5 5 3 6 2 7 20 8 16 9 17 10 19 11 6 12
REMARK SMILES IDX 13 13 7 14 11 15 8 16 9 17 12 18 10 20 4 22 21 24 18 26
REMARK H PARENT 12 19 10 21 4 23 21 25 18 27
ROOT
ATOM      1  O   UNL     1      29.238 -23.512 -15.564  1.00  0.00    -0.452 OA
ATOM      2  O   UNL     1      30.366 -20.523 -18.094  1.00  0.00    -0.285 OA
ATOM      3  C   UNL     1      28.608 -21.726 -17.082  1.00  0.00     0.111 A 
ATOM      4  C   UNL     1      28.288 -22.761 -16.207  1.00  0.00     0.146 A 
ATOM      5  C   UNL     1      30.574 -23.218 -15.785  1.00  0.00     0.180 A 
ATOM      6  C   UNL     1      31.016 -22.251 -16.611  1.00  0.00     0.208 A 
ATOM      7  C   UNL     1      30.025 -21.417 -17.332  1.00  0.00     0.238 A 
ATOM      8  C   UNL     1      27.597 -20.995 -17.711  1.00  0.00     0.134 A 
ATOM      9  C   UNL     1      26.952 -23.075 -15.956  1.00  0.00     0.094 A 
ATOM     10  C   UNL     1      25.938 -22.347 -16.581  1.00  0.00     0.123 A 
ATOM     11  C   UNL     1      26.262 -21.310 -17.457  1.00  0.00     0.093 A 
ENDROOT
BRANCH   5  12
ATOM     12  C   UNL     1      31.488 -24.097 -15.035  1.00  0.00     0.025 A 
ATOM     13  C   UNL     1      31.463 -24.103 -13.641  1.00  0.00     0.062 A 
ATOM     14  C   UNL     1      32.379 -24.924 -15.720  1.00  0.00     0.016 A 
ATOM     15  C   UNL     1      32.327 -24.936 -12.930  1.00  0.00     0.158 A 
ATOM     16  C   UNL     1      33.244 -25.756 -15.010  1.00  0.00     0.051 A 
ATOM     17  C   UNL     1      33.219 -25.762 -13.616  1.00  0.00     0.157 A 
BRANCH  15  18
ATOM     18  O   UNL     1      32.295 -24.933 -11.569  1.00  0.00    -0.504 OA
ATOM     19  H   UNL     1      32.313 -24.019 -11.242  1.00  0.00     0.293 HD
ENDBRANCH  15  18
BRANCH  17  20
ATOM     20  O   UNL     1      34.067 -26.582 -12.933  1.00  0.00    -0.504 OA
ATOM     21  H   UNL     1      34.259 -27.370 -13.464  1.00  0.00     0.293 HD
ENDBRANCH  17  20
ENDBRANCH   5  12
BRANCH   6  22
ATOM     22  O   UNL     1      32.354 -22.006 -16.834  1.00  0.00    -0.502 OA
ATOM     23  H   UNL     1      32.879 -22.777 -16.570  1.00  0.00     0.293 HD
ENDBRANCH   6  22
BRANCH   8  24
ATOM     24  O   UNL     1      27.856 -19.974 -18.574  1.00  0.00    -0.507 OA
ATOM     25  H   UNL     1      28.732 -20.080 -18.974  1.00  0.00     0.293 HD
ENDBRANCH   8  24
BRANCH  10  26
ATOM     26  O   UNL     1      24.635 -22.651 -16.338  1.00  0.00    -0.508 OA
ATOM     27  H   UNL     1      24.388 -22.305 -15.463  1.00  0.00     0.293 HD
ENDBRANCH  10  26
TORSDOF 6
ENDMDL
MODEL 2
REMARK VINA RESULT:    -8.830      1.393      6.719
REMARK INTER + INTRA:         -10.769
REMARK INTER:                 -10.702
REMARK INTRA:                  -0.067
REMARK UNBOUND:                -0.133
REMARK SMILES O=c1c(O)c(-c2ccc(O)c(O)c2)oc2cc(O)cc(O)c12
REMARK SMILES IDX 14 1 1 2 22 3 15 4 5 5 3 6 2 7 20 8 16 9 17 10 19 11 6 12
REMARK SMILES IDX 13 13 7 14 11 15 8 16 9 17 12 18 10 20 4 22 21 24 18 26
REMARK H PARENT 12 19 10 21 4 23 21 25 18 27
ROOT
ATOM      1  O   UNL     1      29.593 -23.179 -14.318  1.00  0.00    -0.452 OA
ATOM      2  O   UNL     1      32.697 -24.755 -16.436  1.00  0.00    -0.285 OA
ATOM      3  C   UNL     1      31.723 -24.342 -14.328  1.00  0.00     0.111 A 
ATOM      4  C   UNL     1      30.633 -23.784 -13.663  1.00  0.00     0.146 A 
ATOM      5  C   UNL     1      29.619 -23.134 -15.703  1.00  0.00     0.180 A 
ATOM      6  C   UNL     1      30.614 -23.627 -16.463  1.00  0.00     0.208 A 
ATOM      7  C   UNL     1      31.764 -24.286 -15.798  1.00  0.00     0.238 A 
ATOM      8  C   UNL     1      32.756 -24.945 -13.607  1.00  0.00     0.134 A 
ATOM      9  C   UNL     1      30.572 -23.822 -12.270  1.00  0.00     0.094 A 
ATOM     10  C   UNL     1      31.603 -24.424 -11.545  1.00  0.00     0.123 A 
ATOM     11  C   UNL     1      32.692 -24.983 -12.214  1.00  0.00     0.093 A 
ENDROOT
BRANCH   5  12
ATOM     12  C   UNL     1      28.443 -22.459 -16.279  1.00  0.00     0.025 A 
ATOM     13  C   UNL     1      27.160 -22.917 -15.981  1.00  0.00     0.062 A 
ATOM     14  C   UNL     1      28.614 -21.361 -17.123  1.00  0.00     0.016 A 
ATOM     15  C   UNL     1      26.047 -22.277 -16.526  1.00  0.00     0.158 A 
ATOM     16  C   UNL     1      27.501 -20.721 -17.669  1.00  0.00     0.051 A 
ATOM     17  C   UNL     1      26.217 -21.179 -17.371  1.00  0.00     0.157 A 
BRANCH  15  18
ATOM     18  O   UNL     1      24.798 -22.733 -16.230  1.00  0.00    -0.504 OA
ATOM     19  H   UNL     1      24.573 -22.502 -15.314  1.00  0.00     0.293 HD
ENDBRANCH  15  18
BRANCH  17  20
ATOM     20  O   UNL     1      25.138 -20.545 -17.908  1.00  0.00    -0.504 OA
ATOM     21  H   UNL     1      24.333 -21.053 -17.721  1.00  0.00     0.293 HD
ENDBRANCH  17  20
ENDBRANCH   5  12
BRANCH   6  22
ATOM     22  O   UNL     1      30.627 -23.537 -17.838  1.00  0.00    -0.502 OA
ATOM     23  H   UNL     1      30.471 -24.412 -18.228  1.00  0.00     0.293 HD
ENDBRANCH   6  22
BRANCH   8  24
ATOM     24  O   UNL     1      33.843 -25.505 -14.209  1.00  0.00    -0.507 OA
ATOM     25  H   UNL     1      33.569 -26.207 -14.820  1.00  0.00     0.293 HD
ENDBRANCH   8  24
BRANCH  10  26
ATOM     26  O   UNL     1      31.545 -24.463 -10.187  1.00  0.00    -0.508 OA
ATOM     27  H   UNL     1      30.717 -24.047  -9.893  1.00  0.00     0.293 HD
ENDBRANCH  10  26
TORSDOF 6
ENDMDL
MODEL 3
REMARK VINA RESULT:    -8.550      2.518      7.042
REMARK INTER + INTRA:         -10.432
REMARK INTER:                 -10.622
REMARK INTRA:                   0.190
REMARK UNBOUND:                -0.133
REMARK SMILES O=c1c(O)c(-c2ccc(O)c(O)c2)oc2cc(O)cc(O)c12
REMARK SMILES IDX 14 1 1 2 22 3 15 4 5 5 3 6 2 7 20 8 16 9 17 10 19 11 6 12
REMARK SMILES IDX 13 13 7 14 11 15 8 16 9 17 12 18 10 20 4 22 21 24 18 26
REMARK H PARENT 12 19 10 21 4 23 21 25 18 27
ROOT
ATOM      1  O   UNL     1      31.454 -21.562 -17.891  1.00  0.00    -0.452 OA
ATOM      2  O   UNL     1      33.042 -23.434 -14.638  1.00  0.00    -0.285 OA
ATOM      3  C   UNL     1      33.409 -22.416 -16.734  1.00  0.00     0.111 A 
ATOM      4  C   UNL     1      32.804 -21.783 -17.818  1.00  0.00     0.146 A 
ATOM      5  C   UNL     1      30.657 -21.975 -16.835  1.00  0.00     0.180 A 
ATOM      6  C   UNL     1      31.114 -22.603 -15.736  1.00  0.00     0.208 A 
ATOM      7  C   UNL     1      32.568 -22.868 -15.615  1.00  0.00     0.238 A 
ATOM      8  C   UNL     1      34.791 -22.615 -16.715  1.00  0.00     0.134 A 
ATOM      9  C   UNL     1      33.580 -21.346 -18.893  1.00  0.00     0.094 A 
ATOM     10  C   UNL     1      34.962 -21.544 -18.877  1.00  0.00     0.123 A 
ATOM     11  C   UNL     1      35.565 -22.177 -17.789  1.00  0.00     0.093 A 
ENDROOT
BRANCH   5  12
ATOM     12  C   UNL     1      29.229 -21.677 -17.040  1.00  0.00     0.025 A 
ATOM     13  C   UNL     1      28.259 -22.584 -16.614  1.00  0.00     0.062 A 
ATOM     14  C   UNL     1      28.847 -20.487 -17.661  1.00  0.00     0.016 A 
ATOM     15  C   UNL     1      26.907 -22.301 -16.808  1.00  0.00     0.158 A 
ATOM     16  C   UNL     1      27.495 -20.205 -17.855  1.00  0.00     0.051 A 
ATOM     17  C   UNL     1      26.525 -21.111 -17.429  1.00  0.00     0.157 A 
BRANCH  15  18
ATOM     18  O   UNL     1      25.968 -23.194 -16.389  1.00  0.00    -0.504 OA
ATOM     19  H   UNL     1      25.094 -22.934 -16.724  1.00  0.00     0.293 HD
ENDBRANCH  15  18
BRANCH  17  20
ATOM     20  O   UNL     1      25.207 -20.823 -17.623  1.00  0.00    -0.504 OA
ATOM     21  H   UNL     1      24.789 -21.532 -18.137  1.00  0.00     0.293 HD
ENDBRANCH  17  20
ENDBRANCH   5  12
BRANCH   6  22
ATOM     22  O   UNL     1      30.291 -23.030 -14.716  1.00  0.00    -0.502 OA
ATOM     23  H   UNL     1      30.668 -22.776 -13.860  1.00  0.00     0.293 HD
ENDBRANCH   6  22
BRANCH   8  24
ATOM     24  O   UNL     1      35.431 -23.228 -15.679  1.00  0.00    -0.507 OA
ATOM     25  H   UNL     1      34.852 -23.279 -14.904  1.00  0.00     0.293 HD
ENDBRANCH   8  24
BRANCH  10  26
ATOM     26  O   UNL     1      35.720 -21.119 -19.923  1.00  0.00    -0.508 OA
ATOM     27  H   UNL     1      35.843 -21.857 -20.545  1.00  0.00     0.293 HD
ENDBRANCH  10  26
TORSDOF 6
ENDMDL
MODEL 4
REMARK VINA RESULT:    -7.881      1.518      6.547
REMARK INTER + INTRA:          -9.627
REMARK INTER:                 -10.017
REMARK INTRA:                   0.391
REMARK UNBOUND:                -0.133
REMARK SMILES O=c1c(O)c(-c2ccc(O)c(O)c2)oc2cc(O)cc(O)c12
REMARK SMILES IDX 14 1 1 2 22 3 15 4 5 5 3 6 2 7 20 8 16 9 17 10 19 11 6 12
REMARK SMILES IDX 13 13 7 14 11 15 8 16 9 17 12 18 10 20 4 22 21 24 18 26
REMARK H PARENT 12 19 10 21 4 23 21 25 18 27
ROOT
ATOM      1  O   UNL     1      30.258 -23.157 -16.052  1.00  0.00    -0.452 OA
ATOM      2  O   UNL     1      32.477 -20.483 -18.182  1.00  0.00    -0.285 OA
ATOM      3  C   UNL     1      32.440 -22.368 -16.765  1.00  0.00     0.111 A 
ATOM      4  C   UNL     1      31.626 -23.249 -16.057  1.00  0.00     0.146 A 
ATOM      5  C   UNL     1      29.660 -22.151 -16.794  1.00  0.00     0.180 A 
ATOM      6  C   UNL     1      30.331 -21.232 -17.514  1.00  0.00     0.208 A 
ATOM      7  C   UNL     1      31.812 -21.290 -17.545  1.00  0.00     0.238 A 
ATOM      8  C   UNL     1      33.829 -22.510 -16.732  1.00  0.00     0.134 A 
ATOM      9  C   UNL     1      32.197 -24.279 -15.308  1.00  0.00     0.094 A 
ATOM     10  C   UNL     1      33.584 -24.424 -15.273  1.00  0.00     0.123 A 
ATOM     11  C   UNL     1      34.398 -23.540 -15.983  1.00  0.00     0.093 A 
ENDROOT
BRANCH   5  12
ATOM     12  C   UNL     1      28.190 -22.165 -16.703  1.00  0.00     0.025 A 
ATOM     13  C   UNL     1      27.460 -21.020 -17.021  1.00  0.00     0.062 A 
ATOM     14  C   UNL     1      27.528 -23.324 -16.298  1.00  0.00     0.016 A 
ATOM     15  C   UNL     1      26.067 -21.034 -16.936  1.00  0.00     0.158 A 
ATOM     16  C   UNL     1      26.135 -23.338 -16.211  1.00  0.00     0.051 A 
ATOM     17  C   UNL     1      25.405 -22.193 -16.530  1.00  0.00     0.157 A 
BRANCH  15  18
ATOM     18  O   UNL     1      25.364 -19.910 -17.248  1.00  0.00    -0.504 OA
ATOM     19  H   UNL     1      25.607 -19.192 -16.641  1.00  0.00     0.293 HD
ENDBRANCH  15  18
BRANCH  17  20
ATOM     20  O   UNL     1      24.046 -22.219 -16.444  1.00  0.00    -0.504 OA
ATOM     21  H   UNL     1      23.779 -22.375 -15.524  1.00  0.00     0.293 HD
ENDBRANCH  17  20
ENDBRANCH   5  12
BRANCH   6  22
ATOM     22  O   UNL     1      29.707 -20.223 -18.216  1.00  0.00    -0.502 OA
ATOM     23  H   UNL     1      30.251 -19.420 -18.191  1.00  0.00     0.293 HD
ENDBRANCH   6  22
BRANCH   8  24
ATOM     24  O   UNL     1      34.670 -21.675 -17.406  1.00  0.00    -0.507 OA
ATOM     25  H   UNL     1      35.567 -21.730 -17.043  1.00  0.00     0.293 HD
ENDBRANCH   8  24
BRANCH  10  26
ATOM     26  O   UNL     1      34.144 -25.427 -14.544  1.00  0.00    -0.508 OA
ATOM     27  H   UNL     1      34.185 -26.230 -15.091  1.00  0.00     0.293 HD
ENDBRANCH  10  26
TORSDOF 6
ENDMDL
MODEL 5
REMARK VINA RESULT:    -7.823      1.447      7.141
REMARK INTER + INTRA:          -9.556
REMARK INTER:                  -9.350
REMARK INTRA:                  -0.206
REMARK UNBOUND:                -0.133
REMARK SMILES O=c1c(O)c(-c2ccc(O)c(O)c2)oc2cc(O)cc(O)c12
REMARK SMILES IDX 14 1 1 2 22 3 15 4 5 5 3 6 2 7 20 8 16 9 17 10 19 11 6 12
REMARK SMILES IDX 13 13 7 14 11 15 8 16 9 17 12 18 10 20 4 22 21 24 18 26
REMARK H PARENT 12 19 10 21 4 23 21 25 18 27
ROOT
ATOM      1  O   UNL     1      31.258 -24.105 -15.244  1.00  0.00    -0.452 OA
ATOM      2  O   UNL     1      30.801 -23.623 -11.223  1.00  0.00    -0.285 OA
ATOM      3  C   UNL     1      31.923 -24.710 -12.990  1.00  0.00     0.111 A 
ATOM      4  C   UNL     1      32.029 -24.830 -14.374  1.00  0.00     0.146 A 
ATOM      5  C   UNL     1      30.341 -23.205 -14.723  1.00  0.00     0.180 A 
ATOM      6  C   UNL     1      30.135 -23.000 -13.409  1.00  0.00     0.208 A 
ATOM      7  C   UNL     1      30.943 -23.766 -12.430  1.00  0.00     0.238 A 
ATOM      8  C   UNL     1      32.736 -25.477 -12.151  1.00  0.00     0.134 A 
ATOM      9  C   UNL     1      32.949 -25.720 -14.929  1.00  0.00     0.094 A 
ATOM     10  C   UNL     1      33.763 -26.488 -14.094  1.00  0.00     0.123 A 
ATOM     11  C   UNL     1      33.655 -26.366 -12.708  1.00  0.00     0.093 A 
ENDROOT
BRANCH   5  12
ATOM     12  C   UNL     1      29.580 -22.492 -15.764  1.00  0.00     0.025 A 
ATOM     13  C   UNL     1      28.220 -22.751 -15.934  1.00  0.00     0.062 A 
ATOM     14  C   UNL     1      30.219 -21.558 -16.580  1.00  0.00     0.016 A 
ATOM     15  C   UNL     1      27.499 -22.075 -16.919  1.00  0.00     0.158 A 
ATOM     16  C   UNL     1      29.499 -20.883 -17.565  1.00  0.00     0.051 A 
ATOM     17  C   UNL     1      28.139 -21.142 -17.735  1.00  0.00     0.157 A 
BRANCH  15  18
ATOM     18  O   UNL     1      26.172 -22.337 -17.077  1.00  0.00    -0.504 OA
ATOM     19  H   UNL     1      25.796 -22.647 -16.237  1.00  0.00     0.293 HD
ENDBRANCH  15  18
BRANCH  17  20
ATOM     20  O   UNL     1      27.445 -20.475 -18.699  1.00  0.00    -0.504 OA
ATOM     21  H   UNL     1      27.276 -21.066 -19.450  1.00  0.00     0.293 HD
ENDBRANCH  17  20
ENDBRANCH   5  12
BRANCH   6  22
ATOM     22  O   UNL     1      29.192 -22.121 -12.923  1.00  0.00    -0.502 OA
ATOM     23  H   UNL     1      29.016 -22.309 -11.988  1.00  0.00     0.293 HD
ENDBRANCH   6  22
BRANCH   8  24
ATOM     24  O   UNL     1      32.671 -25.398 -10.792  1.00  0.00    -0.507 OA
ATOM     25  H   UNL     1      33.367 -24.815 -10.452  1.00  0.00     0.293 HD
ENDBRANCH   8  24
BRANCH  10  26
ATOM     26  O   UNL     1      34.661 -27.356 -14.633  1.00  0.00    -0.508 OA
ATOM     27  H   UNL     1      34.956 -27.975 -13.943  1.00  0.00     0.293 HD
ENDBRANCH  10  26
TORSDOF 6
ENDMDL
MODEL 6
REMARK VINA RESULT:    -7.470      2.953      6.756
REMARK INTER + INTRA:          -9.131
REMARK INTER:                  -8.799
REMARK INTRA:                  -0.332
REMARK UNBOUND:                -0.133
REMARK SMILES O=c1c(O)c(-c2ccc(O)c(O)c2)oc2cc(O)cc(O)c12
REMARK SMILES IDX 14 1 1 2 22 3 15 4 5 5 3 6 2 7 20 8 16 9 17 10 19 11 6 12
REMARK SMILES IDX 13 13 7 14 11 15 8 16 9 17 12 18 10 20 4 22 21 24 18 26
REMARK H PARENT 12 19 10 21 4 23 21 25 18 27
ROOT
ATOM      1  O   UNL     1      33.521 -23.337 -16.347  1.00  0.00    -0.452 OA
ATOM      2  O   UNL     1      30.071 -22.201 -14.499  1.00  0.00    -0.285 OA
ATOM      3  C   UNL     1      31.886 -23.704 -14.592  1.00  0.00     0.111 A 
ATOM      4  C   UNL     1      33.057 -24.041 -15.268  1.00  0.00     0.146 A 
ATOM      5  C   UNL     1      32.801 -22.233 -16.777  1.00  0.00     0.180 A 
ATOM      6  C   UNL     1      31.653 -21.807 -16.218  1.00  0.00     0.208 A 
ATOM      7  C   UNL     1      31.110 -22.542 -15.050  1.00  0.00     0.238 A 
ATOM      8  C   UNL     1      31.461 -24.461 -13.497  1.00  0.00     0.134 A 
ATOM      9  C   UNL     1      33.810 -25.141 -14.854  1.00  0.00     0.094 A 
ATOM     10  C   UNL     1      33.388 -25.899 -13.761  1.00  0.00     0.123 A 
ATOM     11  C   UNL     1      32.215 -25.559 -13.085  1.00  0.00     0.093 A 
ENDROOT
BRANCH   5  12
ATOM     12  C   UNL     1      33.408 -21.567 -17.942  1.00  0.00     0.025 A 
ATOM     13  C   UNL     1      34.338 -20.544 -17.756  1.00  0.00     0.062 A 
ATOM     14  C   UNL     1      33.054 -21.961 -19.233  1.00  0.00     0.016 A 
ATOM     15  C   UNL     1      34.914 -19.915 -18.860  1.00  0.00     0.158 A 
ATOM     16  C   UNL     1      33.629 -21.331 -20.337  1.00  0.00     0.051 A 
ATOM     17  C   UNL     1      34.558 -20.308 -20.151  1.00  0.00     0.157 A 
BRANCH  15  18
ATOM     18  O   UNL     1      35.819 -18.916 -18.666  1.00  0.00    -0.504 OA
ATOM     19  H   UNL     1      36.393 -19.134 -17.914  1.00  0.00     0.293 HD
ENDBRANCH  15  18
BRANCH  17  20
ATOM     20  O   UNL     1      35.115 -19.702 -21.237  1.00  0.00    -0.504 OA
ATOM     21  H   UNL     1      36.082 -19.742 -21.174  1.00  0.00     0.293 HD
ENDBRANCH  17  20
ENDBRANCH   5  12
BRANCH   6  22
ATOM     22  O   UNL     1      30.943 -20.724 -16.689  1.00  0.00    -0.502 OA
ATOM     23  H   UNL     1      30.345 -20.396 -15.999  1.00  0.00     0.293 HD
ENDBRANCH   6  22
BRANCH   8  24
ATOM     24  O   UNL     1      30.324 -24.174 -12.802  1.00  0.00    -0.507 OA
ATOM     25  H   UNL     1      30.486 -23.461 -12.165  1.00  0.00     0.293 HD
ENDBRANCH   8  24
BRANCH  10  26
ATOM     26  O   UNL     1      34.121 -26.971 -13.355  1.00  0.00    -0.508 OA
ATOM     27  H   UNL     1      34.674 -26.709 -12.600  1.00  0.00     0.293 HD
ENDBRANCH  10  26
TORSDOF 6
ENDMDL
MODEL 7
REMARK VINA RESULT:    -7.352      3.510      5.676
REMARK INTER + INTRA:          -8.989
REMARK INTER:                  -9.385
REMARK INTRA:                   0.396
REMARK UNBOUND:                -0.133
REMARK SMILES O=c1c(O)c(-c2ccc(O)c(O)c2)oc2cc(O)cc(O)c12
REMARK SMILES IDX 14 1 1 2 22 3 15 4 5 5 3 6 2 7 20 8 16 9 17 10 19 11 6 12
REMARK SMILES IDX 13 13 7 14 11 15 8 16 9 17 12 18 10 20 4 22 21 24 18 26
REMARK H PARENT 12 19 10 21 4 23 21 25 18 27
ROOT
ATOM      1  O   UNL     1      34.232 -22.737 -16.887  1.00  0.00    -0.452 OA
ATOM      2  O   UNL     1      31.885 -19.465 -17.521  1.00  0.00    -0.285 OA
ATOM      3  C   UNL     1      33.774 -20.723 -18.162  1.00  0.00     0.111 A 
ATOM      4  C   UNL     1      34.536 -21.858 -17.893  1.00  0.00     0.146 A 
ATOM      5  C   UNL     1      33.109 -22.492 -16.112  1.00  0.00     0.180 A 
ATOM      6  C   UNL     1      32.295 -21.430 -16.262  1.00  0.00     0.208 A 
ATOM      7  C   UNL     1      32.589 -20.449 -17.335  1.00  0.00     0.238 A 
ATOM      8  C   UNL     1      34.135 -19.861 -19.201  1.00  0.00     0.134 A 
ATOM      9  C   UNL     1      35.667 -22.138 -18.662  1.00  0.00     0.094 A 
ATOM     10  C   UNL     1      36.030 -21.280 -19.701  1.00  0.00     0.123 A 
ATOM     11  C   UNL     1      35.264 -20.144 -19.969  1.00  0.00     0.093 A 
ENDROOT
BRANCH   5  12
ATOM     12  C   UNL     1      32.896 -23.510 -15.069  1.00  0.00     0.025 A 
ATOM     13  C   UNL     1      33.507 -24.759 -15.178  1.00  0.00     0.062 A 
ATOM     14  C   UNL     1      32.082 -23.225 -13.972  1.00  0.00     0.016 A 
ATOM     15  C   UNL     1      33.306 -25.723 -14.190  1.00  0.00     0.158 A 
ATOM     16  C   UNL     1      31.881 -24.190 -12.984  1.00  0.00     0.051 A 
ATOM     17  C   UNL     1      32.492 -25.438 -13.093  1.00  0.00     0.157 A 
BRANCH  15  18
ATOM     18  O   UNL     1      33.907 -26.940 -14.307  1.00  0.00    -0.504 OA
ATOM     19  H   UNL     1      34.336 -27.177 -13.469  1.00  0.00     0.293 HD
ENDBRANCH  15  18
BRANCH  17  20
ATOM     20  O   UNL     1      32.290 -26.371 -12.121  1.00  0.00    -0.504 OA
ATOM     21  H   UNL     1      31.882 -25.954 -11.346  1.00  0.00     0.293 HD
ENDBRANCH  17  20
ENDBRANCH   5  12
BRANCH   6  22
ATOM     22  O   UNL     1      31.204 -21.197 -15.453  1.00  0.00    -0.502 OA
ATOM     23  H   UNL     1      31.467 -20.651 -14.695  1.00  0.00     0.293 HD
ENDBRANCH   6  22
BRANCH   8  24
ATOM     24  O   UNL     1      33.424 -18.739 -19.505  1.00  0.00    -0.507 OA
ATOM     25  H   UNL     1      33.515 -18.523 -20.445  1.00  0.00     0.293 HD
ENDBRANCH   8  24
BRANCH  10  26
ATOM     26  O   UNL     1      37.131 -21.551 -20.452  1.00  0.00    -0.508 OA
ATOM     27  H   UNL     1      36.930 -21.367 -21.386  1.00  0.00     0.293 HD
ENDBRANCH  10  26
TORSDOF 6
ENDMDL
MODEL 8
REMARK VINA RESULT:    -6.936     10.524     11.754
REMARK INTER + INTRA:          -8.488
REMARK INTER:                  -8.169
REMARK INTRA:                  -0.319
REMARK UNBOUND:                -0.133
REMARK SMILES O=c1c(O)c(-c2ccc(O)c(O)c2)oc2cc(O)cc(O)c12
REMARK SMILES IDX 14 1 1 2 22 3 15 4 5 5 3 6 2 7 20 8 16 9 17 10 19 11 6 12
REMARK SMILES IDX 13 13 7 14 11 15 8 16 9 17 12 18 10 20 4 22 21 24 18 26
REMARK H PARENT 12 19 10 21 4 23 21 25 18 27
ROOT
ATOM      1  O   UNL     1      23.124 -24.215 -23.686  1.00  0.00    -0.452 OA
ATOM      2  O   UNL     1      22.235 -22.139 -27.078  1.00  0.00    -0.285 OA
ATOM      3  C   UNL     1      22.301 -22.180 -24.721  1.00  0.00     0.111 A 
ATOM      4  C   UNL     1      22.623 -22.943 -23.600  1.00  0.00     0.146 A 
ATOM      5  C   UNL     1      23.332 -24.762 -24.943  1.00  0.00     0.180 A 
ATOM      6  C   UNL     1      23.054 -24.136 -26.102  1.00  0.00     0.208 A 
ATOM      7  C   UNL     1      22.505 -22.759 -26.058  1.00  0.00     0.238 A 
ATOM      8  C   UNL     1      21.791 -20.888 -24.572  1.00  0.00     0.134 A 
ATOM      9  C   UNL     1      22.436 -22.418 -22.321  1.00  0.00     0.094 A 
ATOM     10  C   UNL     1      21.927 -21.127 -22.168  1.00  0.00     0.123 A 
ATOM     11  C   UNL     1      21.606 -20.365 -23.292  1.00  0.00     0.093 A 
ENDROOT
BRANCH   5  12
ATOM     12  C   UNL     1      23.873 -26.131 -24.894  1.00  0.00     0.025 A 
ATOM     13  C   UNL     1      23.017 -27.213 -24.688  1.00  0.00     0.062 A 
ATOM     14  C   UNL     1      25.243 -26.345 -25.053  1.00  0.00     0.016 A 
ATOM     15  C   UNL     1      23.530 -28.509 -24.642  1.00  0.00     0.158 A 
ATOM     16  C   UNL     1      25.755 -27.642 -25.006  1.00  0.00     0.051 A 
ATOM     17  C   UNL     1      24.900 -28.724 -24.800  1.00  0.00     0.157 A 
BRANCH  15  18
ATOM     18  O   UNL     1      22.685 -29.558 -24.440  1.00  0.00    -0.504 OA
ATOM     19  H   UNL     1      22.374 -29.556 -23.520  1.00  0.00     0.293 HD
ENDBRANCH  15  18
BRANCH  17  20
ATOM     20  O   UNL     1      25.412 -29.985 -24.759  1.00  0.00    -0.504 OA
ATOM     21  H   UNL     1      26.324 -29.958 -24.428  1.00  0.00     0.293 HD
ENDBRANCH  17  20
ENDBRANCH   5  12
BRANCH   6  22
ATOM     22  O   UNL     1      23.241 -24.719 -27.336  1.00  0.00    -0.502 OA
ATOM     23  H   UNL     1      22.471 -24.549 -27.901  1.00  0.00     0.293 HD
ENDBRANCH   6  22
BRANCH   8  24
ATOM     24  O   UNL     1      21.460 -20.102 -25.634  1.00  0.00    -0.507 OA
ATOM     25  H   UNL     1      21.887 -20.424 -26.443  1.00  0.00     0.293 HD
ENDBRANCH   8  24
BRANCH  10  26
ATOM     26  O   UNL     1      21.744 -20.612 -20.923  1.00  0.00    -0.508 OA
ATOM     27  H   UNL     1      22.521 -20.822 -20.376  1.00  0.00     0.293 HD
ENDBRANCH  10  26
TORSDOF 6
ENDMDL
MODEL 9
REMARK VINA RESULT:    -6.904     11.589     13.583
REMARK INTER + INTRA:          -8.450
REMARK INTER:                  -8.126
REMARK INTRA:                  -0.324
REMARK UNBOUND:                -0.133
REMARK SMILES O=c1c(O)c(-c2ccc(O)c(O)c2)oc2cc(O)cc(O)c12
REMARK SMILES IDX 14 1 1 2 22 3 15 4 5 5 3 6 2 7 20 8 16 9 17 10 19 11 6 12
REMARK SMILES IDX 13 13 7 14 11 15 8 16 9 17 12 18 10 20 4 22 21 24 18 26
REMARK H PARENT 12 19 10 21 4 23 21 25 18 27
ROOT
ATOM      1  O   UNL     1      27.062 -30.258 -25.241  1.00  0.00    -0.452 OA
ATOM      2  O   UNL     1      29.247 -28.164 -27.970  1.00  0.00    -0.285 OA
ATOM      3  C   UNL     1      29.086 -30.050 -26.563  1.00  0.00     0.111 A 
ATOM      4  C   UNL     1      28.291 -30.718 -25.633  1.00  0.00     0.146 A 
ATOM      5  C   UNL     1      26.584 -29.084 -25.802  1.00  0.00     0.180 A 
ATOM      6  C   UNL     1      27.254 -28.341 -26.702  1.00  0.00     0.208 A 
ATOM      7  C   UNL     1      28.591 -28.797 -27.153  1.00  0.00     0.238 A 
ATOM      8  C   UNL     1      30.333 -30.566 -26.924  1.00  0.00     0.134 A 
ATOM      9  C   UNL     1      28.740 -31.907 -25.057  1.00  0.00     0.094 A 
ATOM     10  C   UNL     1      29.985 -32.426 -25.416  1.00  0.00     0.123 A 
ATOM     11  C   UNL     1      30.779 -31.755 -26.348  1.00  0.00     0.093 A 
ENDROOT
BRANCH   5  12
ATOM     12  C   UNL     1      25.254 -28.703 -25.295  1.00  0.00     0.025 A 
ATOM     13  C   UNL     1      25.143 -27.812 -24.228  1.00  0.00     0.062 A 
ATOM     14  C   UNL     1      24.105 -29.234 -25.883  1.00  0.00     0.016 A 
ATOM     15  C   UNL     1      23.884 -27.451 -23.749  1.00  0.00     0.158 A 
ATOM     16  C   UNL     1      22.846 -28.874 -25.403  1.00  0.00     0.051 A 
ATOM     17  C   UNL     1      22.735 -27.983 -24.336  1.00  0.00     0.157 A 
BRANCH  15  18
ATOM     18  O   UNL     1      23.787 -26.581 -22.705  1.00  0.00    -0.504 OA
ATOM     19  H   UNL     1      23.783 -27.073 -21.867  1.00  0.00     0.293 HD
ENDBRANCH  15  18
BRANCH  17  20
ATOM     20  O   UNL     1      21.500 -27.636 -23.878  1.00  0.00    -0.504 OA
ATOM     21  H   UNL     1      20.844 -28.282 -24.184  1.00  0.00     0.293 HD
ENDBRANCH  17  20
ENDBRANCH   5  12
BRANCH   6  22
ATOM     22  O   UNL     1      26.764 -27.160 -27.218  1.00  0.00    -0.502 OA
ATOM     23  H   UNL     1      26.254 -26.691 -26.539  1.00  0.00     0.293 HD
ENDBRANCH   6  22
BRANCH   8  24
ATOM     24  O   UNL     1      31.149 -29.953 -27.827  1.00  0.00    -0.507 OA
ATOM     25  H   UNL     1      31.055 -28.990 -27.771  1.00  0.00     0.293 HD
ENDBRANCH   8  24
BRANCH  10  26
ATOM     26  O   UNL     1      30.424 -33.585 -24.856  1.00  0.00    -0.508 OA
ATOM     27  H   UNL     1      31.361 -33.484 -24.614  1.00  0.00     0.293 HD
ENDBRANCH  10  26
TORSDOF 6
ENDMDL
