MODEL 1
REMARK VINA RESULT:    -9.894      0.000      0.000
REMARK INTER + INTRA:         -11.945
REMARK INTER:                 -11.918
REMARK INTRA:                  -0.027
REMARK UNBOUND:                -0.027
REMARK SMILES O=c1c(O)c(-c2ccc(O)c(O)c2)oc2cc(O)cc(O)c12
REMARK SMILES IDX 14 1 1 2 22 3 15 4 5 5 3 6 2 7 20 8 16 9 17 10 19 11 6 12
REMARK SMILES IDX 13 13 7 14 11 15 8 16 9 17 12 18 10 20 4 22 21 24 18 26
REMARK H PARENT 12 19 10 21 4 23 21 25 18 27
ROOT
ATOM      1  O   UNL     1      17.893  40.997  60.088  1.00  0.00    -0.452 OA
ATOM      2  O   UNL     1      14.365  42.932  60.733  1.00  0.00    -0.285 OA
ATOM      3  C   UNL     1      16.530  42.414  61.511  1.00  0.00     0.111 A 
ATOM      4  C   UNL     1      17.711  41.729  61.232  1.00  0.00     0.146 A 
ATOM      5  C   UNL     1      16.862  40.948  59.163  1.00  0.00     0.180 A 
ATOM      6  C   UNL     1      15.671  41.556  59.315  1.00  0.00     0.208 A 
ATOM      7  C   UNL     1      15.427  42.355  60.540  1.00  0.00     0.238 A 
ATOM      8  C   UNL     1      16.401  43.144  62.696  1.00  0.00     0.134 A 
ATOM      9  C   UNL     1      18.771  41.767  62.139  1.00  0.00     0.094 A 
ATOM     10  C   UNL     1      18.645  42.495  63.323  1.00  0.00     0.123 A 
ATOM     11  C   UNL     1      17.462  43.182  63.600  1.00  0.00     0.093 A 
ENDROOT
BRANCH   5  12
ATOM     12  C   UNL     1      17.187  40.130  57.982  1.00  0.00     0.025 A 
ATOM     13  C   UNL     1      17.005  40.650  56.701  1.00  0.00     0.062 A 
ATOM     14  C   UNL     1      17.679  38.834  58.145  1.00  0.00     0.016 A 
ATOM     15  C   UNL     1      17.314  39.875  55.582  1.00  0.00     0.158 A 
ATOM     16  C   UNL     1      17.988  38.059  57.027  1.00  0.00     0.051 A 
ATOM     17  C   UNL     1      17.805  38.579  55.746  1.00  0.00     0.157 A 
BRANCH  15  18
ATOM     18  O   UNL     1      17.131  40.392  54.336  1.00  0.00    -0.504 OA
ATOM     19  H   UNL     1      16.415  41.049  54.355  1.00  0.00     0.293 HD
ENDBRANCH  15  18
BRANCH  17  20
ATOM     20  O   UNL     1      18.113  37.814  54.662  1.00  0.00    -0.504 OA
ATOM     21  H   UNL     1      17.627  36.975  54.704  1.00  0.00     0.293 HD
ENDBRANCH  17  20
ENDBRANCH   5  12
BRANCH   6  22
ATOM     22  O   UNL     1      14.653  41.460  58.390  1.00  0.00    -0.502 OA
ATOM     23  H   UNL     1      13.940  40.906  58.742  1.00  0.00     0.293 HD
ENDBRANCH   6  22
BRANCH   8  24
ATOM     24  O   UNL     1      15.268  43.831  63.016  1.00  0.00    -0.507 OA
ATOM     25  H   UNL     1      14.567  43.649  62.372  1.00  0.00     0.293 HD
ENDBRANCH   8  24
BRANCH  10  26
ATOM     26  O   UNL     1      19.677  42.535  64.208  1.00  0.00    -0.508 OA
ATOM     27  H   UNL     1      19.407  42.090  65.030  1.00  0.00     0.293 HD
ENDBRANCH  10  26
TORSDOF 6
ENDMDL
MODEL 2
REMARK VINA RESULT:    -9.197      1.739      3.242
REMARK INTER + INTRA:         -11.106
REMARK INTER:                 -10.949
REMARK INTRA:                  -0.157
REMARK UNBOUND:                -0.027
REMARK SMILES O=c1c(O)c(-c2ccc(O)c(O)c2)oc2cc(O)cc(O)c12
REMARK SMILES IDX 14 1 1 2 22 3 15 4 5 5 3 6 2 7 20 8 16 9 17 10 19 11 6 12
REMARK SMILES IDX 13 13 7 14 11 15 8 16 9 17 12 18 10 20 4 22 21 24 18 26
REMARK H PARENT 12 19 10 21 4 23 21 25 18 27
ROOT
ATOM      1  O   UNL     1      15.700  41.346  61.441  1.00  0.00    -0.452 OA
ATOM      2  O   UNL     1      19.118  42.764  63.149  1.00  0.00    -0.285 OA
ATOM      3  C   UNL     1      16.771  42.549  63.256  1.00  0.00     0.111 A 
ATOM      4  C   UNL     1      15.640  42.040  62.621  1.00  0.00     0.146 A 
ATOM      5  C   UNL     1      16.941  41.131  60.861  1.00  0.00     0.180 A 
ATOM      6  C   UNL     1      18.106  41.576  61.367  1.00  0.00     0.208 A 
ATOM      7  C   UNL     1      18.090  42.336  62.640  1.00  0.00     0.238 A 
ATOM      8  C   UNL     1      16.649  43.250  64.459  1.00  0.00     0.134 A 
ATOM      9  C   UNL     1      14.378  42.231  63.184  1.00  0.00     0.094 A 
ATOM     10  C   UNL     1      14.252  42.931  64.385  1.00  0.00     0.123 A 
ATOM     11  C   UNL     1      15.387  43.439  65.020  1.00  0.00     0.093 A 
ENDROOT
BRANCH   5  12
ATOM     12  C   UNL     1      16.863  40.374  59.600  1.00  0.00     0.025 A 
ATOM     13  C   UNL     1      17.251  40.973  58.401  1.00  0.00     0.062 A 
ATOM     14  C   UNL     1      16.402  39.057  59.604  1.00  0.00     0.016 A 
ATOM     15  C   UNL     1      17.178  40.256  57.207  1.00  0.00     0.158 A 
ATOM     16  C   UNL     1      16.329  38.340  58.410  1.00  0.00     0.051 A 
ATOM     17  C   UNL     1      16.716  38.939  57.212  1.00  0.00     0.157 A 
BRANCH  15  18
ATOM     18  O   UNL     1      17.558  40.851  56.042  1.00  0.00    -0.504 OA
ATOM     19  H   UNL     1      17.399  41.808  56.096  1.00  0.00     0.293 HD
ENDBRANCH  15  18
BRANCH  17  20
ATOM     20  O   UNL     1      16.642  38.228  56.052  1.00  0.00    -0.504 OA
ATOM     21  H   UNL     1      15.735  37.913  55.918  1.00  0.00     0.293 HD
ENDBRANCH  17  20
ENDBRANCH   5  12
BRANCH   6  22
ATOM     22  O   UNL     1      19.321  41.373  60.749  1.00  0.00    -0.502 OA
ATOM     23  H   UNL     1      20.001  41.182  61.414  1.00  0.00     0.293 HD
ENDBRANCH   6  22
BRANCH   8  24
ATOM     24  O   UNL     1      17.723  43.767  65.120  1.00  0.00    -0.507 OA
ATOM     25  H   UNL     1      17.901  44.673  64.823  1.00  0.00     0.293 HD
ENDBRANCH   8  24
BRANCH  10  26
ATOM     26  O   UNL     1      13.023  43.118  64.936  1.00  0.00    -0.508 OA
ATOM     27  H   UNL     1      12.531  42.280  64.904  1.00  0.00     0.293 HD
ENDBRANCH  10  26
TORSDOF 6
ENDMDL
MODEL 3
REMARK VINA RESULT:    -8.632      2.118      3.630
REMARK INTER + INTRA:         -10.425
REMARK INTER:                 -10.166
REMARK INTRA:                  -0.258
REMARK UNBOUND:                -0.027
REMARK SMILES O=c1c(O)c(-c2ccc(O)c(O)c2)oc2cc(O)cc(O)c12
REMARK SMILES IDX 14 1 1 2 22 3 15 4 5 5 3 6 2 7 20 8 16 9 17 10 19 11 6 12
REMARK SMILES IDX 13 13 7 14 11 15 8 16 9 17 12 18 10 20 4 22 21 24 18 26
REMARK H PARENT 12 19 10 21 4 23 21 25 18 27
ROOT
ATOM      1  O   UNL     1      14.799  42.140  60.627  1.00  0.00    -0.452 OA
ATOM      2  O   UNL     1      16.803  41.754  64.155  1.00  0.00    -0.285 OA
ATOM      3  C   UNL     1      15.113  42.848  62.927  1.00  0.00     0.111 A 
ATOM      4  C   UNL     1      14.467  42.932  61.695  1.00  0.00     0.146 A 
ATOM      5  C   UNL     1      15.812  41.207  60.784  1.00  0.00     0.180 A 
ATOM      6  C   UNL     1      16.518  41.031  61.917  1.00  0.00     0.208 A 
ATOM      7  C   UNL     1      16.197  41.869  63.097  1.00  0.00     0.238 A 
ATOM      8  C   UNL     1      14.732  43.682  63.981  1.00  0.00     0.134 A 
ATOM      9  C   UNL     1      13.437  43.854  61.508  1.00  0.00     0.094 A 
ATOM     10  C   UNL     1      13.053  44.689  62.559  1.00  0.00     0.123 A 
ATOM     11  C   UNL     1      13.701  44.603  63.792  1.00  0.00     0.093 A 
ENDROOT
BRANCH   5  12
ATOM     12  C   UNL     1      16.067  40.423  59.563  1.00  0.00     0.025 A 
ATOM     13  C   UNL     1      16.689  41.022  58.467  1.00  0.00     0.062 A 
ATOM     14  C   UNL     1      15.686  39.082  59.503  1.00  0.00     0.016 A 
ATOM     15  C   UNL     1      16.932  40.279  57.311  1.00  0.00     0.158 A 
ATOM     16  C   UNL     1      15.928  38.340  58.347  1.00  0.00     0.051 A 
ATOM     17  C   UNL     1      16.550  38.938  57.251  1.00  0.00     0.157 A 
BRANCH  15  18
ATOM     18  O   UNL     1      17.539  40.874  56.247  1.00  0.00    -0.504 OA
ATOM     19  H   UNL     1      16.945  41.537  55.859  1.00  0.00     0.293 HD
ENDBRANCH  15  18
BRANCH  17  20
ATOM     20  O   UNL     1      16.783  38.202  56.128  1.00  0.00    -0.504 OA
ATOM     21  H   UNL     1      17.484  37.554  56.301  1.00  0.00     0.293 HD
ENDBRANCH  17  20
ENDBRANCH   5  12
BRANCH   6  22
ATOM     22  O   UNL     1      17.542  40.116  62.030  1.00  0.00    -0.502 OA
ATOM     23  H   UNL     1      17.670  39.879  62.962  1.00  0.00     0.293 HD
ENDBRANCH   6  22
BRANCH   8  24
ATOM     24  O   UNL     1      15.330  43.640  65.205  1.00  0.00    -0.507 OA
ATOM     25  H   UNL     1      14.891  44.248  65.819  1.00  0.00     0.293 HD
ENDBRANCH   8  24
BRANCH  10  26
ATOM     26  O   UNL     1      12.049  45.589  62.379  1.00  0.00    -0.508 OA
ATOM     27  H   UNL     1      11.600  45.397  61.538  1.00  0.00     0.293 HD
ENDBRANCH  10  26
TORSDOF 6
ENDMDL
MODEL 4
REMARK VINA RESULT:    -8.382      4.015      7.772
REMARK INTER + INTRA:         -10.123
REMARK INTER:                 -10.086
REMARK INTRA:                  -0.037
REMARK UNBOUND:                -0.027
REMARK SMILES O=c1c(O)c(-c2ccc(O)c(O)c2)oc2cc(O)cc(O)c12
REMARK SMILES IDX 14 1 1 2 22 3 15 4 5 5 3 6 2 7 20 8 16 9 17 10 19 11 6 12
REMARK SMILES IDX 13 13 7 14 11 15 8 16 9 17 12 18 10 20 4 22 21 24 18 26
REMARK H PARENT 12 19 10 21 4 23 21 25 18 27
ROOT
ATOM      1  O   UNL     1      13.484  43.630  60.058  1.00  0.00    -0.452 OA
ATOM      2  O   UNL     1      15.503  42.890  63.520  1.00  0.00    -0.285 OA
ATOM      3  C   UNL     1      15.295  42.492  61.205  1.00  0.00     0.111 A 
ATOM      4  C   UNL     1      14.562  42.785  60.056  1.00  0.00     0.146 A 
ATOM      5  C   UNL     1      13.115  44.230  61.252  1.00  0.00     0.180 A 
ATOM      6  C   UNL     1      13.732  44.025  62.431  1.00  0.00     0.208 A 
ATOM      7  C   UNL     1      14.900  43.114  62.478  1.00  0.00     0.238 A 
ATOM      8  C   UNL     1      16.385  41.620  61.143  1.00  0.00     0.134 A 
ATOM      9  C   UNL     1      14.915  42.206  58.837  1.00  0.00     0.094 A 
ATOM     10  C   UNL     1      16.003  41.335  58.771  1.00  0.00     0.123 A 
ATOM     11  C   UNL     1      16.736  41.043  59.922  1.00  0.00     0.093 A 
ENDROOT
BRANCH   5  12
ATOM     12  C   UNL     1      11.943  45.113  61.115  1.00  0.00     0.025 A 
ATOM     13  C   UNL     1      11.997  46.422  61.592  1.00  0.00     0.062 A 
ATOM     14  C   UNL     1      10.780  44.639  60.508  1.00  0.00     0.016 A 
ATOM     15  C   UNL     1      10.888  47.259  61.460  1.00  0.00     0.158 A 
ATOM     16  C   UNL     1       9.671  45.475  60.377  1.00  0.00     0.051 A 
ATOM     17  C   UNL     1       9.725  46.784  60.854  1.00  0.00     0.157 A 
BRANCH  15  18
ATOM     18  O   UNL     1      10.951  48.535  61.930  1.00  0.00    -0.504 OA
ATOM     19  H   UNL     1      10.695  49.157  61.229  1.00  0.00     0.293 HD
ENDBRANCH  15  18
BRANCH  17  20
ATOM     20  O   UNL     1       8.636  47.592  60.718  1.00  0.00    -0.504 OA
ATOM     21  H   UNL     1       7.827  47.081  60.878  1.00  0.00     0.293 HD
ENDBRANCH  17  20
ENDBRANCH   5  12
BRANCH   6  22
ATOM     22  O   UNL     1      13.319  44.611  63.608  1.00  0.00    -0.502 OA
ATOM     23  H   UNL     1      14.038  45.146  63.980  1.00  0.00     0.293 HD
ENDBRANCH   6  22
BRANCH   8  24
ATOM     24  O   UNL     1      17.134  41.301  62.236  1.00  0.00    -0.507 OA
ATOM     25  H   UNL     1      16.586  40.868  62.908  1.00  0.00     0.293 HD
ENDBRANCH   8  24
BRANCH  10  26
ATOM     26  O   UNL     1      16.350  40.769  57.583  1.00  0.00    -0.508 OA
ATOM     27  H   UNL     1      16.528  39.823  57.723  1.00  0.00     0.293 HD
ENDBRANCH  10  26
TORSDOF 6
ENDMDL
MODEL 5
REMARK VINA RESULT:    -7.958      2.538      3.549
REMARK INTER + INTRA:          -9.613
REMARK INTER:                  -9.354
REMARK INTRA:                  -0.259
REMARK UNBOUND:                -0.027
REMARK SMILES O=c1c(O)c(-c2ccc(O)c(O)c2)oc2cc(O)cc(O)c12
REMARK SMILES IDX 14 1 1 2 22 3 15 4 5 5 3 6 2 7 20 8 16 9 17 10 19 11 6 12
REMARK SMILES IDX 13 13 7 14 11 15 8 16 9 17 12 18 10 20 4 22 21 24 18 26
REMARK H PARENT 12 19 10 21 4 23 21 25 18 27
ROOT
ATOM      1  O   UNL     1      15.459  41.727  62.223  1.00  0.00    -0.452 OA
ATOM      2  O   UNL     1      12.973  44.611  60.770  1.00  0.00    -0.285 OA
ATOM      3  C   UNL     1      13.919  43.553  62.653  1.00  0.00     0.111 A 
ATOM      4  C   UNL     1      14.782  42.548  63.086  1.00  0.00     0.146 A 
ATOM      5  C   UNL     1      15.287  41.914  60.860  1.00  0.00     0.180 A 
ATOM      6  C   UNL     1      14.479  42.840  60.313  1.00  0.00     0.208 A 
ATOM      7  C   UNL     1      13.722  43.748  61.209  1.00  0.00     0.238 A 
ATOM      8  C   UNL     1      13.254  44.360  63.580  1.00  0.00     0.134 A 
ATOM      9  C   UNL     1      14.984  42.342  64.451  1.00  0.00     0.094 A 
ATOM     10  C   UNL     1      14.322  43.146  65.381  1.00  0.00     0.123 A 
ATOM     11  C   UNL     1      13.458  44.152  64.944  1.00  0.00     0.093 A 
ENDROOT
BRANCH   5  12
ATOM     12  C   UNL     1      16.071  40.967  60.047  1.00  0.00     0.025 A 
ATOM     13  C   UNL     1      15.699  39.624  59.988  1.00  0.00     0.062 A 
ATOM     14  C   UNL     1      17.184  41.415  59.336  1.00  0.00     0.016 A 
ATOM     15  C   UNL     1      16.440  38.729  59.216  1.00  0.00     0.158 A 
ATOM     16  C   UNL     1      17.926  40.520  58.565  1.00  0.00     0.051 A 
ATOM     17  C   UNL     1      17.555  39.177  58.506  1.00  0.00     0.157 A 
BRANCH  15  18
ATOM     18  O   UNL     1      16.070  37.419  59.166  1.00  0.00    -0.504 OA
ATOM     19  H   UNL     1      15.549  37.256  58.363  1.00  0.00     0.293 HD
ENDBRANCH  15  18
BRANCH  17  20
ATOM     20  O   UNL     1      18.285  38.312  57.748  1.00  0.00    -0.504 OA
ATOM     21  H   UNL     1      17.895  37.425  57.794  1.00  0.00     0.293 HD
ENDBRANCH  17  20
ENDBRANCH   5  12
BRANCH   6  22
ATOM     22  O   UNL     1      14.305  42.978  58.953  1.00  0.00    -0.502 OA
ATOM     23  H   UNL     1      15.165  43.107  58.523  1.00  0.00     0.293 HD
ENDBRANCH   6  22
BRANCH   8  24
ATOM     24  O   UNL     1      12.401  45.355  63.210  1.00  0.00    -0.507 OA
ATOM     25  H   UNL     1      12.031  45.177  62.331  1.00  0.00     0.293 HD
ENDBRANCH   8  24
BRANCH  10  26
ATOM     26  O   UNL     1      14.517  42.947  66.712  1.00  0.00    -0.508 OA
ATOM     27  H   UNL     1      14.098  42.109  66.972  1.00  0.00     0.293 HD
ENDBRANCH  10  26
TORSDOF 6
ENDMDL
MODEL 6
REMARK VINA RESULT:    -7.907      2.812      4.756
REMARK INTER + INTRA:          -9.552
REMARK INTER:                  -9.364
REMARK INTRA:                  -0.188
REMARK UNBOUND:                -0.027
REMARK SMILES O=c1c(O)c(-c2ccc(O)c(O)c2)oc2cc(O)cc(O)c12
REMARK SMILES IDX 14 1 1 2 22 3 15 4 5 5 3 6 2 7 20 8 16 9 17 10 19 11 6 12
REMARK SMILES IDX 13 13 7 14 11 15 8 16 9 17 12 18 10 20 4 22 21 24 18 26
REMARK H PARENT 12 19 10 21 4 23 21 25 18 27
ROOT
ATOM      1  O   UNL     1      14.171  43.009  60.233  1.00  0.00    -0.452 OA
ATOM      2  O   UNL     1      14.811  43.180  64.254  1.00  0.00    -0.285 OA
ATOM      3  C   UNL     1      13.589  43.954  62.391  1.00  0.00     0.111 A 
ATOM      4  C   UNL     1      13.420  43.850  61.012  1.00  0.00     0.146 A 
ATOM      5  C   UNL     1      15.130  42.218  60.846  1.00  0.00     0.180 A 
ATOM      6  C   UNL     1      15.398  42.229  62.165  1.00  0.00     0.208 A 
ATOM      7  C   UNL     1      14.614  43.127  63.047  1.00  0.00     0.238 A 
ATOM      8  C   UNL     1      12.795  44.830  63.135  1.00  0.00     0.134 A 
ATOM      9  C   UNL     1      12.457  44.625  60.366  1.00  0.00     0.094 A 
ATOM     10  C   UNL     1      11.661  45.502  61.106  1.00  0.00     0.123 A 
ATOM     11  C   UNL     1      11.831  45.604  62.487  1.00  0.00     0.093 A 
ENDROOT
BRANCH   5  12
ATOM     12  C   UNL     1      15.863  41.362  59.897  1.00  0.00     0.025 A 
ATOM     13  C   UNL     1      15.751  39.975  59.978  1.00  0.00     0.062 A 
ATOM     14  C   UNL     1      16.670  41.941  58.917  1.00  0.00     0.016 A 
ATOM     15  C   UNL     1      16.444  39.165  59.078  1.00  0.00     0.158 A 
ATOM     16  C   UNL     1      17.364  41.131  58.018  1.00  0.00     0.051 A 
ATOM     17  C   UNL     1      17.252  39.743  58.098  1.00  0.00     0.157 A 
BRANCH  15  18
ATOM     18  O   UNL     1      16.328  37.811  59.167  1.00  0.00    -0.504 OA
ATOM     19  H   UNL     1      17.042  37.386  58.665  1.00  0.00     0.293 HD
ENDBRANCH  15  18
BRANCH  17  20
ATOM     20  O   UNL     1      17.933  38.963  57.213  1.00  0.00    -0.504 OA
ATOM     21  H   UNL     1      18.630  38.473  57.677  1.00  0.00     0.293 HD
ENDBRANCH  17  20
ENDBRANCH   5  12
BRANCH   6  22
ATOM     22  O   UNL     1      16.381  41.454  62.740  1.00  0.00    -0.502 OA
ATOM     23  H   UNL     1      16.297  40.536  62.436  1.00  0.00     0.293 HD
ENDBRANCH   6  22
BRANCH   8  24
ATOM     24  O   UNL     1      12.919  44.969  64.485  1.00  0.00    -0.507 OA
ATOM     25  H   UNL     1      13.164  44.125  64.893  1.00  0.00     0.293 HD
ENDBRANCH   8  24
BRANCH  10  26
ATOM     26  O   UNL     1      10.721  46.258  60.479  1.00  0.00    -0.508 OA
ATOM     27  H   UNL     1      10.070  45.670  60.058  1.00  0.00     0.293 HD
ENDBRANCH  10  26
TORSDOF 6
ENDMDL
MODEL 7
REMARK VINA RESULT:    -7.522      3.553      6.841
REMARK INTER + INTRA:          -9.089
REMARK INTER:                  -9.433
REMARK INTRA:                   0.344
REMARK UNBOUND:                -0.027
REMARK SMILES O=c1c(O)c(-c2ccc(O)c(O)c2)oc2cc(O)cc(O)c12
REMARK SMILES IDX 14 1 1 2 22 3 15 4 5 5 3 6 2 7 20 8 16 9 17 10 19 11 6 12
REMARK SMILES IDX 13 13 7 14 11 15 8 16 9 17 12 18 10 20 4 22 21 24 18 26
REMARK H PARENT 12 19 10 21 4 23 21 25 18 27
ROOT
ATOM      1  O   UNL     1      14.498  44.217  62.407  1.00  0.00    -0.452 OA
ATOM      2  O   UNL     1      15.841  41.274  59.928  1.00  0.00    -0.285 OA
ATOM      3  C   UNL     1      16.161  42.523  61.903  1.00  0.00     0.111 A 
ATOM      4  C   UNL     1      15.650  43.540  62.708  1.00  0.00     0.146 A 
ATOM      5  C   UNL     1      13.804  43.866  61.259  1.00  0.00     0.180 A 
ATOM      6  C   UNL     1      14.193  42.911  60.395  1.00  0.00     0.208 A 
ATOM      7  C   UNL     1      15.437  42.155  60.676  1.00  0.00     0.238 A 
ATOM      8  C   UNL     1      17.343  41.868  62.259  1.00  0.00     0.134 A 
ATOM      9  C   UNL     1      16.320  43.909  63.874  1.00  0.00     0.094 A 
ATOM     10  C   UNL     1      17.500  43.257  64.234  1.00  0.00     0.123 A 
ATOM     11  C   UNL     1      18.010  42.238  63.427  1.00  0.00     0.093 A 
ENDROOT
BRANCH   5  12
ATOM     12  C   UNL     1      12.586  44.670  61.055  1.00  0.00     0.025 A 
ATOM     13  C   UNL     1      12.465  45.920  61.661  1.00  0.00     0.062 A 
ATOM     14  C   UNL     1      11.554  44.180  60.254  1.00  0.00     0.016 A 
ATOM     15  C   UNL     1      11.312  46.681  61.466  1.00  0.00     0.158 A 
ATOM     16  C   UNL     1      10.401  44.940  60.060  1.00  0.00     0.051 A 
ATOM     17  C   UNL     1      10.280  46.191  60.666  1.00  0.00     0.157 A 
BRANCH  15  18
ATOM     18  O   UNL     1      11.204  47.900  62.064  1.00  0.00    -0.504 OA
ATOM     19  H   UNL     1      10.267  48.141  62.151  1.00  0.00     0.293 HD
ENDBRANCH  15  18
BRANCH  17  20
ATOM     20  O   UNL     1       9.149  46.925  60.467  1.00  0.00    -0.504 OA
ATOM     21  H   UNL     1       8.753  46.692  59.613  1.00  0.00     0.293 HD
ENDBRANCH  17  20
ENDBRANCH   5  12
BRANCH   6  22
ATOM     22  O   UNL     1      13.498  42.609  59.244  1.00  0.00    -0.502 OA
ATOM     23  H   UNL     1      12.614  43.007  59.279  1.00  0.00     0.293 HD
ENDBRANCH   6  22
BRANCH   8  24
ATOM     24  O   UNL     1      17.884  40.868  61.508  1.00  0.00    -0.507 OA
ATOM     25  H   UNL     1      17.840  40.024  61.982  1.00  0.00     0.293 HD
ENDBRANCH   8  24
BRANCH  10  26
ATOM     26  O   UNL     1      18.155  43.615  65.372  1.00  0.00    -0.508 OA
ATOM     27  H   UNL     1      19.110  43.489  65.239  1.00  0.00     0.293 HD
ENDBRANCH  10  26
TORSDOF 6
ENDMDL
MODEL 8
REMARK VINA RESULT:    -7.244      2.520      7.805
REMARK INTER + INTRA:          -8.754
REMARK INTER:                  -9.042
REMARK INTRA:                   0.289
REMARK UNBOUND:                -0.027
REMARK SMILES O=c1c(O)c(-c2ccc(O)c(O)c2)oc2cc(O)cc(O)c12
REMARK SMILES IDX 14 1 1 2 22 3 15 4 5 5 3 6 2 7 20 8 16 9 17 10 19 11 6 12
REMARK SMILES IDX 13 13 7 14 11 15 8 16 9 17 12 18 10 20 4 22 21 24 18 26
REMARK H PARENT 12 19 10 21 4 23 21 25 18 27
ROOT
ATOM      1  O   UNL     1      14.703  42.365  61.520  1.00  0.00    -0.452 OA
ATOM      2  O   UNL     1      18.348  40.602  61.981  1.00  0.00    -0.285 OA
ATOM      3  C   UNL     1      16.524  41.077  60.563  1.00  0.00     0.111 A 
ATOM      4  C   UNL     1      15.281  41.700  60.471  1.00  0.00     0.146 A 
ATOM      5  C   UNL     1      15.392  42.432  62.721  1.00  0.00     0.180 A 
ATOM      6  C   UNL     1      16.593  41.868  62.944  1.00  0.00     0.208 A 
ATOM      7  C   UNL     1      17.255  41.134  61.839  1.00  0.00     0.238 A 
ATOM      8  C   UNL     1      17.064  40.412  59.460  1.00  0.00     0.134 A 
ATOM      9  C   UNL     1      14.567  41.658  59.273  1.00  0.00     0.094 A 
ATOM     10  C   UNL     1      15.103  40.994  58.168  1.00  0.00     0.123 A 
ATOM     11  C   UNL     1      16.349  40.373  58.263  1.00  0.00     0.093 A 
ENDROOT
BRANCH   5  12
ATOM     12  C   UNL     1      14.661  43.174  63.763  1.00  0.00     0.025 A 
ATOM     13  C   UNL     1      13.782  44.197  63.405  1.00  0.00     0.062 A 
ATOM     14  C   UNL     1      14.847  42.854  65.108  1.00  0.00     0.016 A 
ATOM     15  C   UNL     1      13.089  44.898  64.392  1.00  0.00     0.158 A 
ATOM     16  C   UNL     1      14.155  43.556  66.095  1.00  0.00     0.051 A 
ATOM     17  C   UNL     1      13.276  44.579  65.737  1.00  0.00     0.157 A 
BRANCH  15  18
ATOM     18  O   UNL     1      12.234  45.896  64.031  1.00  0.00    -0.504 OA
ATOM     19  H   UNL     1      12.735  46.710  63.857  1.00  0.00     0.293 HD
ENDBRANCH  15  18
BRANCH  17  20
ATOM     20  O   UNL     1      12.604  45.256  66.709  1.00  0.00    -0.504 OA
ATOM     21  H   UNL     1      11.888  44.702  67.058  1.00  0.00     0.293 HD
ENDBRANCH  17  20
ENDBRANCH   5  12
BRANCH   6  22
ATOM     22  O   UNL     1      17.238  41.926  64.161  1.00  0.00    -0.502 OA
ATOM     23  H   UNL     1      17.438  41.029  64.470  1.00  0.00     0.293 HD
ENDBRANCH   6  22
BRANCH   8  24
ATOM     24  O   UNL     1      18.275  39.788  59.497  1.00  0.00    -0.507 OA
ATOM     25  H   UNL     1      18.720  39.960  60.341  1.00  0.00     0.293 HD
ENDBRANCH   8  24
BRANCH  10  26
ATOM     26  O   UNL     1      14.409  40.953  56.998  1.00  0.00    -0.508 OA
ATOM     27  H   UNL     1      14.852  40.337  56.390  1.00  0.00     0.293 HD
ENDBRANCH  10  26
TORSDOF 6
ENDMDL
